
     Program PWSCF v.7.4.1 starts on 11Jul2025 at 18:30:29 
        Git branch: HEAD
        Last git commit: 500de340b820e1cb8c05f2d8bb8fced102f377c1
        Last git commit date: Fri Feb 7 14:59:05 2025 +0000
        Last git commit subject: Merge branch 'qe-7.4.1' into 'master'

     This program is part of the open-source Quantum ESPRESSO suite
     for quantum simulation of materials; please cite
         "P. Giannozzi et al., J. Phys.:Condens. Matter 21 395502 (2009);
         "P. Giannozzi et al., J. Phys.:Condens. Matter 29 465901 (2017);
         "P. Giannozzi et al., J. Chem. Phys. 152 154105 (2020);
          URL http://www.quantum-espresso.org", 
     in publications or presentations arising from this work. More details at
     http://www.quantum-espresso.org/quote

     Parallel version (MPI), running on    10 processors

     MPI processes distributed on     1 nodes
     29494 MiB available memory on the printing compute node when the environment starts

     Reading input from ./CurrentScp/CsPbI_15.0_0.0_nscf.in

     Current dimensions of program PWSCF are:
     Max number of different atomic species (ntypx) = 10
     Max number of k-points (npk) =  40000
     Max angular momentum in pseudopotentials (lmaxx) =  4

     Atomic positions and unit cell read from directory:
     /local/data/public/wd324/QEout/CsPbI_15.0_0.0.save/

     Message from routine setup:
     using ibrav=0 with symmetry is DISCOURAGED, use correct ibrav instead

     R & G space division:  proc/nbgrp/npool/nimage =      10
     Subspace diagonalization in iterative solution of the eigenvalue problem:
     a serial algorithm will be used


     Parallelization info
     --------------------
     sticks:   dense  smooth     PW     G-vecs:    dense   smooth      PW
     Min         778     778    206               130270   130270   17710
     Max         779     779    207               130279   130279   17717
     Sum        7785    7785   2061              1302747  1302747  177133

     Using Slab Decomposition



     bravais-lattice index     =            0
     lattice parameter (alat)  =      16.4812  a.u.
     unit-cell volume          =   11292.6797 (a.u.)^3
     number of atoms/cell      =           14
     number of atomic types    =            3
     number of electrons       =       120.00
     number of Kohn-Sham states=          140
     kinetic-energy cutoff     =      90.0000  Ry
     charge density cutoff     =     360.0000  Ry
     Exchange-correlation= PBE
                           (   1   4   3   4   0   0   0)
     Non magnetic calculation with spin-orbit


     celldm(1)=  16.481158  celldm(2)=   0.000000  celldm(3)=   0.000000
     celldm(4)=   0.000000  celldm(5)=   0.000000  celldm(6)=   0.000000

     crystal axes: (cart. coord. in units of alat)
               a(1) = (   1.000000   0.000000   0.000000 )  
               a(2) = (   0.000000   1.000000   0.000000 )  
               a(3) = (   0.000000   0.000000   2.522515 )  

     reciprocal axes: (cart. coord. in units 2 pi/alat)
               b(1) = (  1.000000  0.000000  0.000000 )  
               b(2) = (  0.000000  1.000000  0.000000 )  
               b(3) = (  0.000000  0.000000  0.396430 )  


     PseudoPot. # 1 for Pb read from file:
     ./pseudo/Pb_FR.upf
     MD5 check sum: 73abbbd201951038fc1bdacebad68d2f
     Pseudo is Norm-conserving + core correction, Zval = 14.0
     Generated using ONCVPSP code by D. R. Hamann
     Using radial grid of 1782 points, 10 beta functions with: 
                l(1) =   0
                l(2) =   0
                l(3) =   1
                l(4) =   1
                l(5) =   1
                l(6) =   1
                l(7) =   2
                l(8) =   2
                l(9) =   2
               l(10) =   2

     PseudoPot. # 2 for I  read from file:
     ./pseudo/I_FR.upf
     MD5 check sum: 301f7009ca0a2b18b0adf53dca02d42f
     Pseudo is Norm-conserving + core correction, Zval =  7.0
     Generated using ONCVPSP code by D. R. Hamann
     Using radial grid of 1210 points, 10 beta functions with: 
                l(1) =   0
                l(2) =   0
                l(3) =   1
                l(4) =   1
                l(5) =   1
                l(6) =   1
                l(7) =   2
                l(8) =   2
                l(9) =   2
               l(10) =   2

     PseudoPot. # 3 for Cs read from file:
     ./pseudo/Cs_FR.upf
     MD5 check sum: 0949d7fbeea01e664226101e754fa92a
     Pseudo is Norm-conserving + core correction, Zval =  9.0
     Generated using ONCVPSP code by D. R. Hamann
     Using radial grid of 2414 points, 14 beta functions with: 
                l(1) =   0
                l(2) =   0
                l(3) =   1
                l(4) =   1
                l(5) =   1
                l(6) =   1
                l(7) =   2
                l(8) =   2
                l(9) =   2
               l(10) =   2
               l(11) =   3
               l(12) =   3
               l(13) =   3
               l(14) =   3

     atomic species   valence    mass     pseudopotential
     Pb               14.00   207.20000     Pb( 1.00)
     I                 7.00   126.90000     I ( 1.00)
     Cs                9.00   132.90000     Cs( 1.00)

     16 Sym. Ops., with inversion, found ( 8 have fractional translation)



   Cartesian axes

     site n.     atom                  positions (alat units)
         1        Pb     tau(   1) = (   0.0000000   0.0000000   1.2612577  )
         2        Pb     tau(   2) = (   0.5000000   0.5000000   1.2612577  )
         3        I      tau(   3) = (   0.1830127   0.3169873   1.2612577  )
         4        I      tau(   4) = (   0.8169873   0.6830127   1.2612577  )
         5        I      tau(   5) = (   0.3169873   0.8169873   1.2612577  )
         6        I      tau(   6) = (   0.6830127   0.1830127   1.2612577  )
         7        I      tau(   7) = (   0.0000000   0.0000000   1.6259832  )
         8        I      tau(   8) = (   0.0000000   0.0000000   0.8965322  )
         9        I      tau(   9) = (   0.5000000   0.5000000   1.6259832  )
        10        I      tau(  10) = (   0.5000000   0.5000000   0.8965322  )
        11        Cs     tau(  11) = (   0.5000000   0.0000000   1.6068989  )
        12        Cs     tau(  12) = (   0.0000000   0.5000000   1.6068824  )
        13        Cs     tau(  13) = (   0.5000000   0.0000000   0.9156165  )
        14        Cs     tau(  14) = (   0.0000000   0.5000000   0.9156329  )

     number of k points=    21
                       cart. coord. in units 2pi/alat
        k(    1) = (   0.5000000   0.5000000   0.0000000), wk =   0.0476190
        k(    2) = (   0.4500000   0.4500000   0.0000000), wk =   0.0476190
        k(    3) = (   0.4000000   0.4000000   0.0000000), wk =   0.0476190
        k(    4) = (   0.3500000   0.3500000   0.0000000), wk =   0.0476190
        k(    5) = (   0.3000000   0.3000000   0.0000000), wk =   0.0476190
        k(    6) = (   0.2500000   0.2500000   0.0000000), wk =   0.0476190
        k(    7) = (   0.2000000   0.2000000   0.0000000), wk =   0.0476190
        k(    8) = (   0.1500000   0.1500000   0.0000000), wk =   0.0476190
        k(    9) = (   0.1000000   0.1000000   0.0000000), wk =   0.0476190
        k(   10) = (   0.0500000   0.0500000   0.0000000), wk =   0.0476190
        k(   11) = (   0.0000000   0.0000000   0.0000000), wk =   0.0476190
        k(   12) = (   0.0500000   0.0000000   0.0000000), wk =   0.0476190
        k(   13) = (   0.1000000   0.0000000   0.0000000), wk =   0.0476190
        k(   14) = (   0.1500000   0.0000000   0.0000000), wk =   0.0476190
        k(   15) = (   0.2000000   0.0000000   0.0000000), wk =   0.0476190
        k(   16) = (   0.2500000   0.0000000   0.0000000), wk =   0.0476190
        k(   17) = (   0.3000000   0.0000000   0.0000000), wk =   0.0476190
        k(   18) = (   0.3500000   0.0000000   0.0000000), wk =   0.0476190
        k(   19) = (   0.4000000   0.0000000   0.0000000), wk =   0.0476190
        k(   20) = (   0.4500000   0.0000000   0.0000000), wk =   0.0476190
        k(   21) = (   0.5000000   0.0000000   0.0000000), wk =   0.0476190

     Dense  grid:  1302747 G-vectors     FFT dimensions: ( 100, 100, 256)

     Estimated max dynamical RAM per process >     617.88 MB

     Estimated total dynamical RAM >       6.03 GB
 ----2D----2D----2D----2D----2D----2D----2D----2D----2D----2D----2D----2D
  The code is running with the 2D cutoff
  Please refer to:
  Sohier, T., Calandra, M., & Mauri, F. (2017), 
  Density functional perturbation theory for gated two-dimensional heterostructures:
  Theoretical developments and application to flexural phonons in graphene.
  Physical Review B, 96(7), 75448. https://doi.org/10.1103/PhysRevB.96.075448
 ----2D----2D----2D----2D----2D----2D----2D----2D----2D----2D----2D----2D

     The potential is recalculated from file :
     /local/data/public/wd324/QEout/CsPbI_15.0_0.0.save/charge-density

     Starting wfcs are  140 randomized atomic wfcs

     Band Structure Calculation
     Davidson diagonalization with overlap
     c_bands:  4 eigenvalues not converged
     c_bands:  2 eigenvalues not converged
     c_bands:  2 eigenvalues not converged
     c_bands:  2 eigenvalues not converged
     c_bands:  1 eigenvalues not converged
     c_bands:  2 eigenvalues not converged
     c_bands:  2 eigenvalues not converged
     c_bands:  2 eigenvalues not converged
     c_bands:  4 eigenvalues not converged
     c_bands:  3 eigenvalues not converged
     c_bands:  4 eigenvalues not converged
     c_bands:  4 eigenvalues not converged
     c_bands:  4 eigenvalues not converged
     c_bands:  2 eigenvalues not converged

     ethr =  8.33E-12,  avg # of iterations =108.2

     total cpu time spent up to now is     6515.6 secs

     End of band structure calculation

          k = 0.5000 0.5000 0.0000 (162800 PWs)   bands (ev):

   -25.7625 -25.7625 -25.7624 -25.7624 -25.7618 -25.7618 -25.7617 -25.7617
   -22.0135 -22.0135 -22.0135 -22.0135 -21.9728 -21.9728 -21.9728 -21.9728
   -19.4717 -19.4717 -19.4717 -19.4717 -19.4187 -19.4187 -19.4187 -19.4187
   -19.4045 -19.4045 -19.4045 -19.4045 -16.1114 -16.1114 -16.1106 -16.1106
   -16.0751 -16.0751 -16.0741 -16.0741 -15.5017 -15.5017 -15.5017 -15.5017
   -15.4526 -15.4526 -15.4524 -15.4524 -13.7067 -13.7067 -13.7066 -13.7066
   -13.6991 -13.6991 -13.6990 -13.6990 -12.1188 -12.1188 -12.1186 -12.1186
   -12.0984 -12.0984 -12.0983 -12.0983 -12.0728 -12.0728 -12.0727 -12.0727
   -12.0649 -12.0649 -12.0648 -12.0648 -11.6344 -11.6344 -11.6344 -11.6344
    -7.5783  -7.5783  -7.5777  -7.5777  -6.8710  -6.8710  -6.8708  -6.8708
    -6.5803  -6.5803  -6.5797  -6.5797  -6.4939  -6.4939  -6.4932  -6.4932
    -5.9408  -5.9408  -5.9404  -5.9404  -5.8237  -5.8237  -5.8233  -5.8233
    -5.6875  -5.6875  -5.6871  -5.6871  -5.4720  -5.4720  -5.4717  -5.4717
    -5.2679  -5.2679  -5.2674  -5.2674  -5.1956  -5.1956  -5.1955  -5.1955
    -5.0766  -5.0766  -5.0763  -5.0763  -4.7237  -4.7237  -4.7234  -4.7234
    -2.3122  -2.3122  -2.3121  -2.3121  -0.8128  -0.8128  -0.8128  -0.8128
     0.0974   0.0974   0.0981   0.0981   0.1411   0.1411   0.1417   0.1417
     0.3446   0.3446   0.3446   0.3446

          k = 0.4500 0.4500 0.0000 (162800 PWs)   bands (ev):

   -25.7625 -25.7625 -25.7624 -25.7624 -25.7618 -25.7618 -25.7617 -25.7617
   -22.0136 -22.0136 -22.0135 -22.0135 -21.9728 -21.9728 -21.9727 -21.9727
   -19.4719 -19.4719 -19.4714 -19.4714 -19.4189 -19.4189 -19.4187 -19.4187
   -19.4045 -19.4045 -19.4045 -19.4045 -16.1414 -16.1414 -16.1096 -16.1096
   -16.0729 -16.0729 -16.0447 -16.0447 -15.5016 -15.5016 -15.5014 -15.5014
   -15.4540 -15.4540 -15.4522 -15.4522 -13.7069 -13.7069 -13.7067 -13.7067
   -13.6994 -13.6994 -13.6991 -13.6991 -12.1190 -12.1190 -12.1187 -12.1187
   -12.0988 -12.0988 -12.0987 -12.0987 -12.0735 -12.0735 -12.0728 -12.0728
   -12.0653 -12.0653 -12.0644 -12.0644 -11.6483 -11.6483 -11.6250 -11.6250
    -7.5816  -7.5816  -7.5477  -7.5477  -6.8777  -6.8777  -6.8667  -6.8667
    -6.6057  -6.6057  -6.5768  -6.5768  -6.4895  -6.4895  -6.4812  -6.4812
    -5.9454  -5.9454  -5.9407  -5.9407  -5.8325  -5.8325  -5.8148  -5.8148
    -5.6928  -5.6928  -5.6735  -5.6735  -5.4745  -5.4745  -5.4709  -5.4709
    -5.2842  -5.2842  -5.2605  -5.2605  -5.2007  -5.2007  -5.1889  -5.1889
    -5.0757  -5.0757  -5.0746  -5.0746  -4.7374  -4.7374  -4.7200  -4.7200
    -2.3200  -2.3200  -2.2451  -2.2451  -0.8206  -0.8206  -0.8041  -0.8041
     0.0387   0.0387   0.0918   0.0918   0.0981   0.0981   0.1490   0.1490
     0.2948   0.2948   0.3501   0.3501

          k = 0.4000 0.4000 0.0000 (162813 PWs)   bands (ev):

   -25.7625 -25.7625 -25.7624 -25.7624 -25.7618 -25.7618 -25.7617 -25.7617
   -22.0137 -22.0137 -22.0133 -22.0133 -21.9728 -21.9728 -21.9727 -21.9727
   -19.4725 -19.4725 -19.4706 -19.4706 -19.4192 -19.4192 -19.4185 -19.4185
   -19.4045 -19.4045 -19.4045 -19.4045 -16.1841 -16.1841 -16.1041 -16.1041
   -16.0694 -16.0694 -16.0037 -16.0037 -15.5012 -15.5012 -15.5006 -15.5006
   -15.4585 -15.4585 -15.4516 -15.4516 -13.7075 -13.7075 -13.7071 -13.7071
   -13.7004 -13.7004 -13.6994 -13.6994 -12.1196 -12.1196 -12.1191 -12.1191
   -12.1002 -12.1002 -12.0998 -12.0998 -12.0758 -12.0758 -12.0731 -12.0731
   -12.0665 -12.0665 -12.0636 -12.0636 -11.6878 -11.6878 -11.5972 -11.5972
    -7.5928  -7.5928  -7.4598  -7.4598  -6.8957  -6.8957  -6.8536  -6.8536
    -6.6756  -6.6756  -6.5705  -6.5705  -6.4777  -6.4777  -6.4494  -6.4494
    -5.9631  -5.9631  -5.9398  -5.9398  -5.8477  -5.8477  -5.7933  -5.7933
    -5.7155  -5.7155  -5.6455  -5.6455  -5.4784  -5.4784  -5.4679  -5.4679
    -5.3186  -5.3186  -5.2411  -5.2411  -5.2131  -5.2131  -5.1760  -5.1760
    -5.0710  -5.0710  -5.0688  -5.0688  -4.7655  -4.7655  -4.7096  -4.7096
    -2.3435  -2.3435  -2.0665  -2.0665  -0.8438  -0.8438  -0.7765  -0.7765
    -0.1114  -0.1114   0.0203   0.0203   0.0744   0.0744   0.1507   0.1507
     0.1630   0.1630   0.3548   0.3548

          k = 0.3500 0.3500 0.0000 (162785 PWs)   bands (ev):

   -25.7625 -25.7625 -25.7623 -25.7623 -25.7619 -25.7619 -25.7617 -25.7617
   -22.0139 -22.0139 -22.0130 -22.0130 -21.9729 -21.9729 -21.9726 -21.9726
   -19.4735 -19.4735 -19.4692 -19.4692 -19.4198 -19.4198 -19.4182 -19.4182
   -19.4045 -19.4045 -19.4045 -19.4045 -16.2256 -16.2256 -16.0953 -16.0953
   -16.0637 -16.0637 -15.9651 -15.9651 -15.5007 -15.5007 -15.4993 -15.4993
   -15.4656 -15.4656 -15.4504 -15.4504 -13.7083 -13.7083 -13.7077 -13.7077
   -13.7019 -13.7019 -13.6999 -13.6999 -12.1206 -12.1206 -12.1195 -12.1195
   -12.1021 -12.1021 -12.1012 -12.1012 -12.0792 -12.0792 -12.0735 -12.0735
   -12.0686 -12.0686 -12.0629 -12.0629 -11.7469 -11.7469 -11.5524 -11.5524
    -7.6101  -7.6101  -7.3270  -7.3270  -6.9190  -6.9190  -6.8346  -6.8346
    -6.7787  -6.7787  -6.5657  -6.5657  -6.4606  -6.4606  -6.4033  -6.4033
    -5.9955  -5.9955  -5.9367  -5.9367  -5.8618  -5.8618  -5.7691  -5.7691
    -5.7568  -5.7568  -5.6216  -5.6216  -5.4704  -5.4704  -5.4621  -5.4621
    -5.3446  -5.3446  -5.2318  -5.2318  -5.2091  -5.2091  -5.1608  -5.1608
    -5.0632  -5.0632  -5.0580  -5.0580  -4.7903  -4.7903  -4.6916  -4.6916
    -2.3823  -2.3823  -1.8286  -1.8286  -0.8823  -0.8823  -0.7254  -0.7254
    -0.2944  -0.2944  -0.1481  -0.1481  -0.0017  -0.0017   0.0507   0.0507
     0.1822   0.1822   0.3508   0.3508

          k = 0.3000 0.3000 0.0000 (162873 PWs)   bands (ev):

   -25.7626 -25.7626 -25.7623 -25.7623 -25.7619 -25.7619 -25.7616 -25.7616
   -22.0142 -22.0142 -22.0127 -22.0127 -21.9730 -21.9730 -21.9725 -21.9725
   -19.4748 -19.4748 -19.4676 -19.4676 -19.4206 -19.4206 -19.4178 -19.4178
   -19.4046 -19.4046 -19.4045 -19.4045 -16.2640 -16.2640 -16.0839 -16.0839
   -16.0565 -16.0565 -15.9310 -15.9310 -15.5000 -15.5000 -15.4976 -15.4976
   -15.4750 -15.4750 -15.4486 -15.4486 -13.7094 -13.7094 -13.7085 -13.7085
   -13.7038 -13.7038 -13.7005 -13.7005 -12.1218 -12.1218 -12.1200 -12.1200
   -12.1041 -12.1041 -12.1027 -12.1027 -12.0836 -12.0836 -12.0740 -12.0740
   -12.0714 -12.0714 -12.0629 -12.0629 -11.8176 -11.8176 -11.4929 -11.4929
    -7.6313  -7.6313  -7.1764  -7.1764  -6.9423  -6.9423  -6.9197  -6.9197
    -6.7926  -6.7926  -6.5646  -6.5646  -6.4413  -6.4413  -6.3476  -6.3476
    -6.0325  -6.0325  -5.9314  -5.9314  -5.8907  -5.8907  -5.7987  -5.7987
    -5.7354  -5.7354  -5.6100  -5.6100  -5.4588  -5.4588  -5.4378  -5.4378
    -5.3495  -5.3495  -5.2456  -5.2456  -5.1780  -5.1780  -5.1438  -5.1438
    -5.0564  -5.0564  -5.0427  -5.0427  -4.8072  -4.8072  -4.6649  -4.6649
    -2.4360  -2.4360  -1.5910  -1.5910  -0.9426  -0.9426  -0.6498  -0.6498
    -0.4821  -0.4821  -0.4160  -0.4160  -0.0727  -0.0727   0.0111   0.0111
     0.2052   0.2052   0.2849   0.2849

          k = 0.2500 0.2500 0.0000 (162865 PWs)   bands (ev):

   -25.7626 -25.7626 -25.7622 -25.7622 -25.7620 -25.7620 -25.7616 -25.7616
   -22.0146 -22.0146 -22.0124 -22.0124 -21.9732 -21.9732 -21.9724 -21.9724
   -19.4762 -19.4762 -19.4658 -19.4658 -19.4213 -19.4213 -19.4174 -19.4174
   -19.4046 -19.4046 -19.4045 -19.4045 -16.2980 -16.2980 -16.0707 -16.0707
   -16.0481 -16.0481 -15.9024 -15.9024 -15.4992 -15.4992 -15.4958 -15.4958
   -15.4861 -15.4861 -15.4462 -15.4462 -13.7105 -13.7105 -13.7095 -13.7095
   -13.7059 -13.7059 -13.7012 -13.7012 -12.1230 -12.1230 -12.1205 -12.1205
   -12.1064 -12.1064 -12.1039 -12.1039 -12.0883 -12.0883 -12.0754 -12.0754
   -12.0742 -12.0742 -12.0635 -12.0635 -11.8914 -11.8914 -11.4227 -11.4227
    -7.6543  -7.6543  -7.1390  -7.1390  -6.9876  -6.9876  -6.9509  -6.9509
    -6.7480  -6.7480  -6.5576  -6.5576  -6.4201  -6.4201  -6.2863  -6.2863
    -6.0550  -6.0550  -5.9384  -5.9384  -5.9203  -5.9203  -5.8083  -5.8083
    -5.7078  -5.7078  -5.6078  -5.6078  -5.4554  -5.4554  -5.3934  -5.3934
    -5.3355  -5.3355  -5.2586  -5.2586  -5.1480  -5.1480  -5.1263  -5.1263
    -5.0517  -5.0517  -5.0266  -5.0266  -4.8196  -4.8196  -4.6275  -4.6275
    -2.5048  -2.5048  -1.4037  -1.4037  -1.0558  -1.0558  -0.6803  -0.6803
    -0.6579  -0.6579  -0.5468  -0.5468  -0.0914  -0.0914  -0.0371  -0.0371
     0.1572   0.1572   0.2567   0.2567

          k = 0.2000 0.2000 0.0000 (162881 PWs)   bands (ev):

   -25.7627 -25.7627 -25.7622 -25.7622 -25.7620 -25.7620 -25.7615 -25.7615
   -22.0149 -22.0149 -22.0121 -22.0121 -21.9733 -21.9733 -21.9723 -21.9723
   -19.4777 -19.4777 -19.4641 -19.4641 -19.4220 -19.4220 -19.4169 -19.4169
   -19.4046 -19.4046 -19.4045 -19.4045 -16.3269 -16.3269 -16.0568 -16.0568
   -16.0392 -16.0392 -15.8798 -15.8798 -15.4986 -15.4986 -15.4981 -15.4981
   -15.4937 -15.4937 -15.4433 -15.4433 -13.7116 -13.7116 -13.7104 -13.7104
   -13.7080 -13.7080 -13.7020 -13.7020 -12.1242 -12.1242 -12.1210 -12.1210
   -12.1087 -12.1087 -12.1049 -12.1049 -12.0928 -12.0928 -12.0799 -12.0799
   -12.0748 -12.0748 -12.0647 -12.0647 -11.9604 -11.9604 -11.3473 -11.3473
    -7.6767  -7.6767  -7.2964  -7.2964  -6.9924  -6.9924  -6.8916  -6.8916
    -6.7099  -6.7099  -6.5153  -6.5153  -6.3827  -6.3827  -6.2218  -6.2218
    -6.0558  -6.0558  -5.9719  -5.9719  -5.9103  -5.9103  -5.8080  -5.8080
    -5.6857  -5.6857  -5.6068  -5.6068  -5.4566  -5.4566  -5.3474  -5.3474
    -5.3116  -5.3116  -5.2653  -5.2653  -5.1253  -5.1253  -5.1106  -5.1106
    -5.0486  -5.0486  -5.0120  -5.0120  -4.8320  -4.8320  -4.5769  -4.5769
    -2.5907  -2.5907  -1.2998  -1.2998  -1.2431  -1.2431  -0.8447  -0.8447
    -0.7895  -0.7895  -0.5080  -0.5080  -0.1089  -0.1089  -0.0180  -0.0180
     0.0569   0.0569   0.2808   0.2808

          k = 0.1500 0.1500 0.0000 (162763 PWs)   bands (ev):

   -25.7627 -25.7627 -25.7621 -25.7621 -25.7621 -25.7621 -25.7615 -25.7615
   -22.0152 -22.0152 -22.0118 -22.0118 -21.9734 -21.9734 -21.9722 -21.9722
   -19.4791 -19.4791 -19.4626 -19.4626 -19.4227 -19.4227 -19.4164 -19.4164
   -19.4046 -19.4046 -19.4044 -19.4044 -16.3499 -16.3499 -16.0440 -16.0440
   -16.0306 -16.0306 -15.8632 -15.8632 -15.5098 -15.5098 -15.4977 -15.4977
   -15.4922 -15.4922 -15.4403 -15.4403 -13.7126 -13.7126 -13.7112 -13.7112
   -13.7099 -13.7099 -13.7026 -13.7026 -12.1253 -12.1253 -12.1214 -12.1214
   -12.1108 -12.1108 -12.1060 -12.1060 -12.0965 -12.0965 -12.0867 -12.0867
   -12.0753 -12.0753 -12.0663 -12.0663 -12.0168 -12.0168 -11.2741 -11.2741
    -7.6963  -7.6963  -7.4630  -7.4630  -7.0066  -7.0066  -6.8608  -6.8608
    -6.6921  -6.6921  -6.4730  -6.4730  -6.2983  -6.2983  -6.1546  -6.1546
    -6.0518  -6.0518  -5.9796  -5.9796  -5.8923  -5.8923  -5.8047  -5.8047
    -5.6751  -5.6751  -5.5955  -5.5955  -5.4628  -5.4628  -5.3303  -5.3303
    -5.2867  -5.2867  -5.2432  -5.2432  -5.1151  -5.1151  -5.1017  -5.1017
    -5.0409  -5.0409  -5.0001  -5.0001  -4.8473  -4.8473  -4.5111  -4.5111
    -2.6972  -2.6972  -1.4948  -1.4948  -1.2120  -1.2120  -0.9870  -0.9870
    -0.8449  -0.8449  -0.5154  -0.5154  -0.1681  -0.1681  -0.0641  -0.0641
     0.1241   0.1241   0.2810   0.2810

          k = 0.1000 0.1000 0.0000 (162709 PWs)   bands (ev):

   -25.7628 -25.7628 -25.7621 -25.7621 -25.7621 -25.7621 -25.7615 -25.7615
   -22.0154 -22.0154 -22.0115 -22.0115 -21.9735 -21.9735 -21.9722 -21.9722
   -19.4802 -19.4802 -19.4614 -19.4614 -19.4232 -19.4232 -19.4160 -19.4160
   -19.4046 -19.4046 -19.4044 -19.4044 -16.3667 -16.3667 -16.0338 -16.0338
   -16.0229 -16.0229 -15.8521 -15.8521 -15.5196 -15.5196 -15.4972 -15.4972
   -15.4909 -15.4909 -15.4377 -15.4377 -13.7133 -13.7133 -13.7119 -13.7119
   -13.7114 -13.7114 -13.7031 -13.7031 -12.1261 -12.1261 -12.1218 -12.1218
   -12.1125 -12.1125 -12.1086 -12.1086 -12.0998 -12.0998 -12.0973 -12.0973
   -12.0756 -12.0756 -12.0688 -12.0688 -12.0511 -12.0511 -11.2119 -11.2119
    -7.7116  -7.7116  -7.6018  -7.6018  -7.0175  -7.0175  -6.8605  -6.8605
    -6.6733  -6.6733  -6.4622  -6.4622  -6.2112  -6.2112  -6.1007  -6.1007
    -6.0441  -6.0441  -5.9595  -5.9595  -5.8665  -5.8665  -5.7966  -5.7966
    -5.6679  -5.6679  -5.5722  -5.5722  -5.4739  -5.4739  -5.3581  -5.3581
    -5.2478  -5.2478  -5.2053  -5.2053  -5.1201  -5.1201  -5.1026  -5.1026
    -5.0244  -5.0244  -4.9915  -4.9915  -4.8651  -4.8651  -4.4332  -4.4332
    -2.8202  -2.8202  -1.6772  -1.6772  -1.1801  -1.1801  -1.0954  -1.0954
    -0.8722  -0.8722  -0.5349  -0.5349  -0.2191  -0.2191  -0.1386  -0.1386
     0.2258   0.2258   0.2956   0.2956

          k = 0.0500 0.0500 0.0000 (162779 PWs)   bands (ev):

   -25.7628 -25.7628 -25.7621 -25.7621 -25.7621 -25.7621 -25.7614 -25.7614
   -22.0156 -22.0156 -22.0114 -22.0114 -21.9735 -21.9735 -21.9721 -21.9721
   -19.4810 -19.4810 -19.4606 -19.4606 -19.4235 -19.4235 -19.4157 -19.4157
   -19.4046 -19.4046 -19.4044 -19.4044 -16.3769 -16.3769 -16.0275 -16.0275
   -16.0173 -16.0173 -15.8458 -15.8458 -15.5262 -15.5262 -15.4968 -15.4968
   -15.4900 -15.4900 -15.4358 -15.4358 -13.7137 -13.7137 -13.7124 -13.7124
   -13.7123 -13.7123 -13.7035 -13.7035 -12.1271 -12.1271 -12.1226 -12.1226
   -12.1192 -12.1192 -12.1132 -12.1132 -12.1059 -12.1059 -12.0992 -12.0992
   -12.0759 -12.0759 -12.0725 -12.0725 -12.0618 -12.0618 -11.1698 -11.1698
    -7.7214  -7.7214  -7.6932  -7.6932  -7.0241  -7.0241  -6.8685  -6.8685
    -6.6551  -6.6551  -6.4633  -6.4633  -6.1628  -6.1628  -6.0922  -6.0922
    -6.0164  -6.0164  -5.9318  -5.9318  -5.8482  -5.8482  -5.7856  -5.7856
    -5.6403  -5.6403  -5.5459  -5.5459  -5.4859  -5.4859  -5.4036  -5.4036
    -5.2083  -5.2083  -5.1758  -5.1758  -5.1410  -5.1410  -5.1051  -5.1051
    -5.0077  -5.0077  -4.9863  -4.9863  -4.8811  -4.8811  -4.3616  -4.3616
    -2.9310  -2.9310  -1.7867  -1.7867  -1.1683  -1.1683  -1.1607  -1.1607
    -0.8869  -0.8869  -0.5486  -0.5486  -0.2525  -0.2525  -0.1860  -0.1860
     0.2938   0.2938   0.3235   0.3235

          k = 0.0000 0.0000 0.0000 (162801 PWs)   bands (ev):

   -25.7628 -25.7628 -25.7621 -25.7621 -25.7621 -25.7621 -25.7614 -25.7614
   -22.0156 -22.0156 -22.0113 -22.0113 -21.9735 -21.9735 -21.9721 -21.9721
   -19.4812 -19.4812 -19.4604 -19.4604 -19.4236 -19.4236 -19.4156 -19.4156
   -19.4046 -19.4046 -19.4044 -19.4044 -16.3803 -16.3803 -16.0254 -16.0254
   -16.0152 -16.0152 -15.8438 -15.8438 -15.5286 -15.5286 -15.4967 -15.4967
   -15.4897 -15.4897 -15.4352 -15.4352 -13.7139 -13.7139 -13.7127 -13.7127
   -13.7125 -13.7125 -13.7036 -13.7036 -12.1294 -12.1294 -12.1251 -12.1251
   -12.1215 -12.1215 -12.1137 -12.1137 -12.1068 -12.1068 -12.0995 -12.0995
   -12.0759 -12.0759 -12.0742 -12.0742 -12.0635 -12.0635 -11.1548 -11.1548
    -7.7266  -7.7266  -7.7233  -7.7233  -7.0264  -7.0264  -6.8723  -6.8723
    -6.6476  -6.6476  -6.4650  -6.4650  -6.1477  -6.1477  -6.0933  -6.0933
    -6.0061  -6.0061  -5.9182  -5.9182  -5.8437  -5.8437  -5.7831  -5.7831
    -5.6143  -5.6143  -5.5340  -5.5340  -5.4857  -5.4857  -5.4370  -5.4370
    -5.1753  -5.1753  -5.1683  -5.1683  -5.1643  -5.1643  -5.1066  -5.1066
    -5.0005  -5.0005  -4.9846  -4.9846  -4.8880  -4.8880  -4.3306  -4.3306
    -2.9778  -2.9778  -1.8222  -1.8222  -1.1873  -1.1873  -1.1608  -1.1608
    -0.8918  -0.8918  -0.5531  -0.5531  -0.2641  -0.2641  -0.2022  -0.2022
     0.3232   0.3232   0.3241   0.3241

          k = 0.0500 0.0000 0.0000 (162807 PWs)   bands (ev):

   -25.7628 -25.7628 -25.7621 -25.7621 -25.7621 -25.7621 -25.7614 -25.7614
   -22.0156 -22.0156 -22.0113 -22.0113 -21.9735 -21.9735 -21.9721 -21.9721
   -19.4811 -19.4811 -19.4605 -19.4605 -19.4235 -19.4235 -19.4157 -19.4157
   -19.4046 -19.4046 -19.4044 -19.4044 -16.3786 -16.3786 -16.0269 -16.0269
   -16.0159 -16.0159 -15.8448 -15.8448 -15.5274 -15.5274 -15.4968 -15.4968
   -15.4899 -15.4899 -15.4355 -15.4355 -13.7138 -13.7138 -13.7126 -13.7126
   -13.7124 -13.7124 -13.7035 -13.7035 -12.1278 -12.1278 -12.1237 -12.1237
   -12.1209 -12.1209 -12.1135 -12.1135 -12.1064 -12.1064 -12.0994 -12.0994
   -12.0759 -12.0759 -12.0733 -12.0733 -12.0627 -12.0627 -11.1624 -11.1624
    -7.7192  -7.7192  -7.7129  -7.7129  -7.0253  -7.0253  -6.8703  -6.8703
    -6.6515  -6.6515  -6.4640  -6.4640  -6.1552  -6.1552  -6.0926  -6.0926
    -6.0111  -6.0111  -5.9253  -5.9253  -5.8457  -5.8457  -5.7837  -5.7837
    -5.6300  -5.6300  -5.5395  -5.5395  -5.4877  -5.4877  -5.4173  -5.4173
    -5.1979  -5.1979  -5.1687  -5.1687  -5.1500  -5.1500  -5.1058  -5.1058
    -5.0042  -5.0042  -4.9855  -4.9855  -4.8844  -4.8844  -4.3469  -4.3469
    -2.9532  -2.9532  -1.8047  -1.8047  -1.1763  -1.1763  -1.1622  -1.1622
    -0.8894  -0.8894  -0.5509  -0.5509  -0.2583  -0.2583  -0.1941  -0.1941
     0.3055   0.3055   0.3302   0.3302

          k = 0.1000 0.0000 0.0000 (162765 PWs)   bands (ev):

   -25.7628 -25.7628 -25.7621 -25.7621 -25.7621 -25.7621 -25.7614 -25.7614
   -22.0155 -22.0155 -22.0114 -22.0114 -21.9735 -21.9735 -21.9721 -21.9721
   -19.4807 -19.4807 -19.4609 -19.4609 -19.4234 -19.4234 -19.4158 -19.4158
   -19.4046 -19.4046 -19.4044 -19.4044 -16.3735 -16.3735 -16.0342 -16.0342
   -16.0146 -16.0146 -15.8478 -15.8478 -15.5240 -15.5240 -15.4969 -15.4969
   -15.4903 -15.4903 -15.4365 -15.4365 -13.7136 -13.7136 -13.7123 -13.7123
   -13.7119 -13.7119 -13.7034 -13.7034 -12.1267 -12.1267 -12.1221 -12.1221
   -12.1155 -12.1155 -12.1117 -12.1117 -12.1044 -12.1044 -12.0989 -12.0989
   -12.0758 -12.0758 -12.0710 -12.0710 -12.0594 -12.0594 -11.1846 -11.1846
    -7.7009  -7.7009  -7.6784  -7.6784  -7.0219  -7.0219  -6.8652  -6.8652
    -6.6627  -6.6627  -6.4613  -6.4613  -6.1783  -6.1783  -6.0928  -6.0928
    -6.0257  -6.0257  -5.9421  -5.9421  -5.8530  -5.8530  -5.7858  -5.7858
    -5.6640  -5.6640  -5.5541  -5.5541  -5.4823  -5.4823  -5.3830  -5.3830
    -5.2275  -5.2275  -5.1796  -5.1796  -5.1351  -5.1351  -5.1031  -5.1031
    -5.0143  -5.0143  -4.9879  -4.9879  -4.8753  -4.8753  -4.3909  -4.3909
    -2.8832  -2.8832  -1.7530  -1.7530  -1.1706  -1.1706  -1.1402  -1.1402
    -0.8824  -0.8824  -0.5441  -0.5441  -0.2416  -0.2416  -0.1700  -0.1700
     0.2711   0.2711   0.3058   0.3059

          k = 0.1500 0.0000 0.0000 (162748 PWs)   bands (ev):

   -25.7628 -25.7628 -25.7621 -25.7621 -25.7621 -25.7621 -25.7615 -25.7615
   -22.0154 -22.0154 -22.0115 -22.0115 -21.9734 -21.9734 -21.9722 -21.9722
   -19.4801 -19.4801 -19.4615 -19.4615 -19.4231 -19.4231 -19.4161 -19.4161
   -19.4046 -19.4046 -19.4044 -19.4044 -16.3651 -16.3651 -16.0482 -16.0482
   -16.0101 -16.0101 -15.8528 -15.8528 -15.5187 -15.5187 -15.4972 -15.4972
   -15.4910 -15.4910 -15.4382 -15.4382 -13.7132 -13.7132 -13.7120 -13.7120
   -13.7111 -13.7111 -13.7031 -13.7031 -12.1263 -12.1263 -12.1218 -12.1218
   -12.1134 -12.1134 -12.1075 -12.1075 -12.0991 -12.0991 -12.0953 -12.0953
   -12.0757 -12.0757 -12.0682 -12.0682 -12.0487 -12.0487 -11.2205 -11.2205
    -7.6712  -7.6712  -7.6219  -7.6219  -7.0163  -7.0163  -6.8593  -6.8593
    -6.6794  -6.6794  -6.4578  -6.4578  -6.2195  -6.2195  -6.1032  -6.1032
    -6.0409  -6.0409  -5.9602  -5.9602  -5.8689  -5.8689  -5.7889  -5.7889
    -5.6981  -5.6981  -5.5725  -5.5725  -5.4730  -5.4730  -5.3518  -5.3518
    -5.2605  -5.2605  -5.1947  -5.1947  -5.1297  -5.1297  -5.0968  -5.0968
    -5.0282  -5.0282  -4.9917  -4.9917  -4.8635  -4.8635  -4.4519  -4.4519
    -2.7769  -2.7769  -1.6693  -1.6693  -1.1832  -1.1832  -1.0854  -1.0854
    -0.8715  -0.8715  -0.5334  -0.5334  -0.2159  -0.2159  -0.1306  -0.1306
     0.2223   0.2223   0.2689   0.2689

          k = 0.2000 0.0000 0.0000 (162720 PWs)   bands (ev):

   -25.7628 -25.7628 -25.7621 -25.7621 -25.7621 -25.7621 -25.7615 -25.7615
   -22.0152 -22.0152 -22.0117 -22.0117 -21.9734 -21.9734 -21.9722 -21.9722
   -19.4792 -19.4792 -19.4624 -19.4624 -19.4228 -19.4228 -19.4164 -19.4164
   -19.4046 -19.4046 -19.4044 -19.4044 -16.3534 -16.3534 -16.0674 -16.0674
   -16.0031 -16.0031 -15.8598 -15.8598 -15.5121 -15.5121 -15.4975 -15.4975
   -15.4918 -15.4918 -15.4405 -15.4405 -13.7127 -13.7127 -13.7116 -13.7116
   -13.7101 -13.7101 -13.7029 -13.7029 -12.1259 -12.1259 -12.1216 -12.1216
   -12.1126 -12.1126 -12.1060 -12.1060 -12.0971 -12.0971 -12.0864 -12.0864
   -12.0755 -12.0755 -12.0663 -12.0663 -12.0243 -12.0243 -11.2681 -11.2681
    -7.6301  -7.6301  -7.5460  -7.5460  -7.0086  -7.0086  -6.8568  -6.8568
    -6.7004  -6.7004  -6.4542  -6.4542  -6.2797  -6.2797  -6.1310  -6.1310
    -6.0423  -6.0423  -5.9757  -5.9757  -5.8970  -5.8970  -5.7922  -5.7922
    -5.7234  -5.7234  -5.5933  -5.5933  -5.4645  -5.4645  -5.3289  -5.3289
    -5.2944  -5.2944  -5.2113  -5.2113  -5.1335  -5.1335  -5.0878  -5.0878
    -5.0439  -5.0439  -4.9965  -4.9965  -4.8513  -4.8513  -4.5182  -4.5182
    -2.6438  -2.6438  -1.5572  -1.5572  -1.2048  -1.2048  -1.0121  -1.0121
    -0.8570  -0.8570  -0.5203  -0.5203  -0.1848  -0.1848  -0.0774  -0.0774
     0.1621   0.1621   0.2322   0.2322

          k = 0.2500 0.0000 0.0000 (162786 PWs)   bands (ev):

   -25.7627 -25.7627 -25.7622 -25.7622 -25.7620 -25.7620 -25.7615 -25.7615
   -22.0150 -22.0150 -22.0119 -22.0119 -21.9733 -21.9733 -21.9723 -21.9723
   -19.4782 -19.4782 -19.4634 -19.4634 -19.4224 -19.4224 -19.4168 -19.4168
   -19.4046 -19.4046 -19.4045 -19.4045 -16.3386 -16.3386 -16.0902 -16.0902
   -15.9942 -15.9942 -15.8686 -15.8686 -15.5046 -15.5046 -15.4978 -15.4978
   -15.4928 -15.4928 -15.4434 -15.4434 -13.7121 -13.7121 -13.7112 -13.7112
   -13.7090 -13.7090 -13.7027 -13.7027 -12.1255 -12.1255 -12.1216 -12.1216
   -12.1117 -12.1117 -12.1056 -12.1056 -12.0947 -12.0947 -12.0802 -12.0802
   -12.0755 -12.0755 -12.0650 -12.0650 -11.9867 -11.9867 -11.3255 -11.3255
    -7.5780  -7.5780  -7.4535  -7.4535  -6.9989  -6.9989  -6.8625  -6.8625
    -6.7262  -6.7262  -6.4506  -6.4506  -6.3523  -6.3523  -6.1646  -6.1646
    -6.0391  -6.0391  -5.9870  -5.9870  -5.9344  -5.9344  -5.7945  -5.7945
    -5.7400  -5.7400  -5.6178  -5.6178  -5.4583  -5.4583  -5.3368  -5.3368
    -5.3048  -5.3048  -5.2274  -5.2274  -5.1421  -5.1421  -5.0820  -5.0820
    -5.0575  -5.0575  -5.0017  -5.0017  -4.8397  -4.8397  -4.5814  -4.5814
    -2.4923  -2.4923  -1.4221  -1.4221  -1.2374  -1.2374  -0.9242  -0.9242
    -0.8378  -0.8378  -0.5089  -0.5089  -0.1538  -0.1538  -0.0138  -0.0138
     0.0948   0.0948   0.1710   0.1710

          k = 0.3000 0.0000 0.0000 (162842 PWs)   bands (ev):

   -25.7627 -25.7627 -25.7622 -25.7622 -25.7620 -25.7620 -25.7616 -25.7616
   -22.0147 -22.0147 -22.0122 -22.0122 -21.9732 -21.9732 -21.9724 -21.9724
   -19.4769 -19.4769 -19.4647 -19.4647 -19.4219 -19.4219 -19.4172 -19.4172
   -19.4046 -19.4046 -19.4045 -19.4045 -16.3209 -16.3209 -16.1158 -16.1158
   -15.9836 -15.9836 -15.8790 -15.8790 -15.4981 -15.4981 -15.4968 -15.4968
   -15.4938 -15.4938 -15.4470 -15.4470 -13.7115 -13.7115 -13.7108 -13.7108
   -13.7078 -13.7078 -13.7025 -13.7025 -12.1251 -12.1251 -12.1217 -12.1217
   -12.1108 -12.1108 -12.1055 -12.1055 -12.0919 -12.0919 -12.0765 -12.0765
   -12.0750 -12.0750 -12.0640 -12.0640 -11.9388 -11.9388 -11.3903 -11.3903
    -7.5157  -7.5157  -7.3483  -7.3483  -6.9885  -6.9885  -6.8801  -6.8801
    -6.7593  -6.7593  -6.4582  -6.4582  -6.4149  -6.4149  -6.1981  -6.1981
    -6.0452  -6.0452  -6.0013  -6.0013  -5.9587  -5.9587  -5.7958  -5.7958
    -5.7513  -5.7513  -5.6473  -5.6473  -5.4548  -5.4548  -5.3691  -5.3691
    -5.2940  -5.2940  -5.2414  -5.2414  -5.1515  -5.1515  -5.0906  -5.0906
    -5.0583  -5.0583  -5.0072  -5.0072  -4.8284  -4.8284  -4.6364  -4.6364
    -2.3293  -2.3293  -1.3068  -1.3068  -1.2459  -1.2459  -0.8319  -0.8319
    -0.8059  -0.8059  -0.5054  -0.5054  -0.1290  -0.1290   0.0204   0.0204
     0.0443   0.0443   0.1007   0.1007

          k = 0.3500 0.0000 0.0000 (162812 PWs)   bands (ev):

   -25.7626 -25.7626 -25.7623 -25.7623 -25.7619 -25.7619 -25.7616 -25.7616
   -22.0144 -22.0144 -22.0125 -22.0125 -21.9731 -21.9731 -21.9725 -21.9725
   -19.4756 -19.4756 -19.4661 -19.4661 -19.4213 -19.4213 -19.4177 -19.4177
   -19.4046 -19.4046 -19.4045 -19.4045 -16.3005 -16.3005 -16.1429 -16.1429
   -15.9718 -15.9718 -15.8908 -15.8908 -15.4982 -15.4982 -15.4951 -15.4951
   -15.4887 -15.4887 -15.4512 -15.4512 -13.7109 -13.7109 -13.7104 -13.7104
   -13.7066 -13.7066 -13.7025 -13.7025 -12.1246 -12.1246 -12.1218 -12.1218
   -12.1100 -12.1100 -12.1058 -12.1058 -12.0888 -12.0888 -12.0765 -12.0765
   -12.0720 -12.0720 -12.0635 -12.0635 -11.8828 -11.8828 -11.4604 -11.4604
    -7.4441  -7.4441  -7.2355  -7.2355  -6.9833  -6.9833  -6.9067  -6.9067
    -6.7987  -6.7987  -6.5253  -6.5253  -6.4140  -6.4140  -6.2313  -6.2313
    -6.0622  -6.0622  -6.0320  -6.0320  -5.9460  -5.9460  -5.7970  -5.7970
    -5.7600  -5.7600  -5.6822  -5.6822  -5.4533  -5.4533  -5.3979  -5.3979
    -5.2858  -5.2858  -5.2523  -5.2523  -5.1588  -5.1588  -5.1077  -5.1077
    -5.0514  -5.0514  -5.0127  -5.0127  -4.8167  -4.8167  -4.6819  -4.6819
    -2.1612  -2.1612  -1.3621  -1.3621  -1.0874  -1.0874  -0.7875  -0.7875
    -0.7112  -0.7112  -0.5164  -0.5164  -0.1154  -0.1154  -0.0566  -0.0566
    -0.0010  -0.0010   0.0511   0.0511

          k = 0.4000 0.0000 0.0000 (162818 PWs)   bands (ev):

   -25.7626 -25.7626 -25.7623 -25.7623 -25.7619 -25.7619 -25.7617 -25.7617
   -22.0141 -22.0141 -22.0128 -22.0128 -21.9730 -21.9730 -21.9726 -21.9726
   -19.4741 -19.4741 -19.4676 -19.4676 -19.4208 -19.4208 -19.4183 -19.4183
   -19.4046 -19.4046 -19.4045 -19.4045 -16.2778 -16.2778 -16.1710 -16.1710
   -15.9589 -15.9589 -15.9037 -15.9037 -15.4981 -15.4981 -15.4960 -15.4960
   -15.4812 -15.4812 -15.4560 -15.4560 -13.7105 -13.7105 -13.7101 -13.7101
   -13.7054 -13.7054 -13.7027 -13.7027 -12.1241 -12.1241 -12.1222 -12.1222
   -12.1091 -12.1091 -12.1062 -12.1062 -12.0858 -12.0858 -12.0774 -12.0774
   -12.0691 -12.0691 -12.0635 -12.0635 -11.8204 -11.8204 -11.5335 -11.5335
    -7.3646  -7.3646  -7.1301  -7.1301  -7.0002  -7.0002  -6.9166  -6.9166
    -6.8378  -6.8378  -6.6136  -6.6136  -6.3919  -6.3919  -6.2649  -6.2649
    -6.0806  -6.0806  -6.0577  -6.0577  -5.9179  -5.9179  -5.8007  -5.8007
    -5.7667  -5.7667  -5.7194  -5.7194  -5.4524  -5.4524  -5.4202  -5.4202
    -5.2801  -5.2801  -5.2605  -5.2605  -5.1619  -5.1619  -5.1250  -5.1250
    -5.0439  -5.0439  -5.0183  -5.0183  -4.8038  -4.8038  -4.7183  -4.7183
    -1.9943  -1.9943  -1.4493  -1.4493  -0.9079  -0.9079  -0.7485  -0.7485
    -0.5984  -0.5984  -0.5442  -0.5442  -0.1733  -0.1733  -0.1142  -0.1142
    -0.0951  -0.0951  -0.0254  -0.0254

          k = 0.4500 0.0000 0.0000 (162818 PWs)   bands (ev):

   -25.7625 -25.7625 -25.7624 -25.7624 -25.7619 -25.7619 -25.7617 -25.7617
   -22.0138 -22.0138 -22.0131 -22.0131 -21.9729 -21.9729 -21.9727 -21.9727
   -19.4725 -19.4725 -19.4692 -19.4692 -19.4201 -19.4201 -19.4189 -19.4189
   -19.4046 -19.4046 -19.4046 -19.4046 -16.2530 -16.2530 -16.1991 -16.1991
   -15.9453 -15.9453 -15.9173 -15.9173 -15.4979 -15.4979 -15.4968 -15.4968
   -15.4740 -15.4740 -15.4614 -15.4614 -13.7102 -13.7102 -13.7100 -13.7100
   -13.7044 -13.7044 -13.7030 -13.7030 -12.1236 -12.1236 -12.1226 -12.1226
   -12.1082 -12.1082 -12.1068 -12.1068 -12.0830 -12.0830 -12.0787 -12.0787
   -12.0668 -12.0668 -12.0639 -12.0639 -11.7528 -11.7528 -11.6078 -11.6078
    -7.2796  -7.2796  -7.1190  -7.1190  -6.9688  -6.9688  -6.8929  -6.8929
    -6.8726  -6.8726  -6.7138  -6.7138  -6.3632  -6.3632  -6.2984  -6.2984
    -6.0899  -6.0899  -6.0762  -6.0762  -5.8829  -5.8829  -5.8150  -5.8150
    -5.7695  -5.7695  -5.7499  -5.7499  -5.4503  -5.4503  -5.4357  -5.4357
    -5.2757  -5.2757  -5.2666  -5.2666  -5.1596  -5.1596  -5.1402  -5.1402
    -5.0367  -5.0367  -5.0241  -5.0241  -4.7887  -4.7887  -4.7472  -4.7472
    -1.8346  -1.8346  -1.5584  -1.5584  -0.7322  -0.7322  -0.7021  -0.7021
    -0.5780  -0.5780  -0.4821  -0.4821  -0.3255  -0.3255  -0.2433  -0.2433
    -0.0906  -0.0906  -0.0571  -0.0571

          k = 0.5000 0.0000 0.0000 (162870 PWs)   bands (ev):

   -25.7625 -25.7625 -25.7624 -25.7624 -25.7618 -25.7618 -25.7617 -25.7617
   -22.0135 -22.0135 -22.0135 -22.0135 -21.9728 -21.9728 -21.9728 -21.9728
   -19.4708 -19.4708 -19.4708 -19.4708 -19.4195 -19.4195 -19.4195 -19.4195
   -19.4046 -19.4046 -19.4046 -19.4046 -16.2267 -16.2267 -16.2265 -16.2265
   -15.9314 -15.9314 -15.9312 -15.9312 -15.4975 -15.4975 -15.4975 -15.4975
   -15.4674 -15.4674 -15.4674 -15.4674 -13.7100 -13.7100 -13.7099 -13.7099
   -13.7037 -13.7037 -13.7036 -13.7036 -12.1231 -12.1231 -12.1230 -12.1230
   -12.1075 -12.1075 -12.1074 -12.1074 -12.0807 -12.0807 -12.0806 -12.0806
   -12.0651 -12.0651 -12.0650 -12.0650 -11.6814 -11.6814 -11.6814 -11.6814
    -7.1935  -7.1935  -7.1935  -7.1935  -6.9091  -6.9091  -6.9091  -6.9091
    -6.8183  -6.8183  -6.8182  -6.8182  -6.3315  -6.3315  -6.3315  -6.3315
    -6.0878  -6.0878  -6.0876  -6.0876  -5.8458  -5.8458  -5.8456  -5.8456
    -5.7652  -5.7652  -5.7652  -5.7652  -5.4453  -5.4453  -5.4453  -5.4453
    -5.2715  -5.2715  -5.2714  -5.2714  -5.1521  -5.1521  -5.1521  -5.1521
    -5.0302  -5.0302  -5.0301  -5.0301  -4.7702  -4.7702  -4.7702  -4.7702
    -1.6878  -1.6878  -1.6877  -1.6877  -0.6650  -0.6650  -0.6650  -0.6650
    -0.5018  -0.5018  -0.5018  -0.5018  -0.3631  -0.3631  -0.3628  -0.3628
    -0.0772  -0.0772  -0.0769  -0.0769

     highest occupied, lowest unoccupied level (ev):    -4.3306   -2.9778

     Writing all to output data dir /local/data/public/wd324/QEout/CsPbI_15.0_0.0.save/ :
     XML data file, pseudopotentials, collected wavefunctions

     init_run     :      1.15s CPU      1.25s WALL (       1 calls)
     electrons    :   6272.66s CPU   6513.98s WALL (       1 calls)

     Called by init_run:
     wfcinit      :      0.00s CPU      0.00s WALL (       1 calls)
     potinit      :      0.18s CPU      0.23s WALL (       1 calls)
     hinit0       :      0.38s CPU      0.39s WALL (       1 calls)

     Called by electrons:
     c_bands      :   6272.66s CPU   6513.98s WALL (       1 calls)
     v_of_rho     :      0.15s CPU      0.17s WALL (       1 calls)

     Called by c_bands:
     init_us_2    :      2.56s CPU      2.65s WALL (      21 calls)
     cegterg      :   6111.37s CPU   6343.93s WALL (     116 calls)

     Called by *egterg:
     cdiaghg      :     57.90s CPU     57.96s WALL (    2293 calls)
     h_psi        :   4781.73s CPU   5000.83s WALL (    2409 calls)
     g_psi        :     21.83s CPU     21.84s WALL (    2272 calls)

     Called by h_psi:
     h_psi:calbec :    536.70s CPU    539.94s WALL (    2409 calls)
     vloc_psi     :   3799.95s CPU   4004.72s WALL (    2409 calls)
     add_vuspsi   :    415.75s CPU    416.07s WALL (    2409 calls)

     General routines
     calbec       :    536.69s CPU    539.93s WALL (    2409 calls)
     fft          :      0.40s CPU      0.42s WALL (      14 calls)
     fftw         :   2679.36s CPU   2881.31s WALL (  498652 calls)
     davcio       :      0.02s CPU      2.36s WALL (      42 calls)

     Parallel routines

     PWSCF        :      1h44m CPU      1h49m WALL


   This run was terminated on:  20:19:35  11Jul2025            

=------------------------------------------------------------------------------=
   JOB DONE.
=------------------------------------------------------------------------------=
