
     Program PWSCF v.7.4.1 starts on 11Jul2025 at 18:30:29 
        Git branch: HEAD
        Last git commit: 500de340b820e1cb8c05f2d8bb8fced102f377c1
        Last git commit date: Fri Feb 7 14:59:05 2025 +0000
        Last git commit subject: Merge branch 'qe-7.4.1' into 'master'

     This program is part of the open-source Quantum ESPRESSO suite
     for quantum simulation of materials; please cite
         "P. Giannozzi et al., J. Phys.:Condens. Matter 21 395502 (2009);
         "P. Giannozzi et al., J. Phys.:Condens. Matter 29 465901 (2017);
         "P. Giannozzi et al., J. Chem. Phys. 152 154105 (2020);
          URL http://www.quantum-espresso.org", 
     in publications or presentations arising from this work. More details at
     http://www.quantum-espresso.org/quote

     Parallel version (MPI), running on    10 processors

     MPI processes distributed on     1 nodes
     29540 MiB available memory on the printing compute node when the environment starts

     Reading input from ./CurrentScp/CsPbI_15.0_12.5_nscf.in

     Current dimensions of program PWSCF are:
     Max number of different atomic species (ntypx) = 10
     Max number of k-points (npk) =  40000
     Max angular momentum in pseudopotentials (lmaxx) =  4

     Atomic positions and unit cell read from directory:
     /local/data/public/wd324/QEout/CsPbI_15.0_12.5.save/

     Message from routine setup:
     using ibrav=0 with symmetry is DISCOURAGED, use correct ibrav instead

     R & G space division:  proc/nbgrp/npool/nimage =      10
     Subspace diagonalization in iterative solution of the eigenvalue problem:
     a serial algorithm will be used


     Parallelization info
     --------------------
     sticks:   dense  smooth     PW     G-vecs:    dense   smooth      PW
     Min         819     819    215               137257   137257   18621
     Max         820     820    216               137262   137262   18630
     Sum        8195    8195   2159              1372589  1372589  186279

     Using Slab Decomposition



     bravais-lattice index     =            0
     lattice parameter (alat)  =      16.0206  a.u.
     unit-cell volume          =   11898.1933 (a.u.)^3
     number of atoms/cell      =           14
     number of atomic types    =            3
     number of electrons       =       120.00
     number of Kohn-Sham states=          140
     kinetic-energy cutoff     =      90.0000  Ry
     charge density cutoff     =     360.0000  Ry
     Exchange-correlation= PBE
                           (   1   4   3   4   0   0   0)
     Non magnetic calculation with spin-orbit


     celldm(1)=  16.020619  celldm(2)=   0.000000  celldm(3)=   0.000000
     celldm(4)=   0.000000  celldm(5)=   0.000000  celldm(6)=   0.000000

     crystal axes: (cart. coord. in units of alat)
               a(1) = (   1.000000   0.000000   0.000000 )  
               a(2) = (   0.000000   1.115067   0.000000 )  
               a(3) = (   0.000000   0.000000   2.595029 )  

     reciprocal axes: (cart. coord. in units 2 pi/alat)
               b(1) = (  1.000000  0.000000  0.000000 )  
               b(2) = (  0.000000  0.896807  0.000000 )  
               b(3) = (  0.000000  0.000000  0.385352 )  


     PseudoPot. # 1 for Pb read from file:
     ./pseudo/Pb_FR.upf
     MD5 check sum: 73abbbd201951038fc1bdacebad68d2f
     Pseudo is Norm-conserving + core correction, Zval = 14.0
     Generated using ONCVPSP code by D. R. Hamann
     Using radial grid of 1782 points, 10 beta functions with: 
                l(1) =   0
                l(2) =   0
                l(3) =   1
                l(4) =   1
                l(5) =   1
                l(6) =   1
                l(7) =   2
                l(8) =   2
                l(9) =   2
               l(10) =   2

     PseudoPot. # 2 for I  read from file:
     ./pseudo/I_FR.upf
     MD5 check sum: 301f7009ca0a2b18b0adf53dca02d42f
     Pseudo is Norm-conserving + core correction, Zval =  7.0
     Generated using ONCVPSP code by D. R. Hamann
     Using radial grid of 1210 points, 10 beta functions with: 
                l(1) =   0
                l(2) =   0
                l(3) =   1
                l(4) =   1
                l(5) =   1
                l(6) =   1
                l(7) =   2
                l(8) =   2
                l(9) =   2
               l(10) =   2

     PseudoPot. # 3 for Cs read from file:
     ./pseudo/Cs_FR.upf
     MD5 check sum: 0949d7fbeea01e664226101e754fa92a
     Pseudo is Norm-conserving + core correction, Zval =  9.0
     Generated using ONCVPSP code by D. R. Hamann
     Using radial grid of 2414 points, 14 beta functions with: 
                l(1) =   0
                l(2) =   0
                l(3) =   1
                l(4) =   1
                l(5) =   1
                l(6) =   1
                l(7) =   2
                l(8) =   2
                l(9) =   2
               l(10) =   2
               l(11) =   3
               l(12) =   3
               l(13) =   3
               l(14) =   3

     atomic species   valence    mass     pseudopotential
     Pb               14.00   207.20000     Pb( 1.00)
     I                 7.00   126.90000     I ( 1.00)
     Cs                9.00   132.90000     Cs( 1.00)

      4 Sym. Ops., with inversion, found ( 2 have fractional translation)



   Cartesian axes

     site n.     atom                  positions (alat units)
         1        Pb     tau(   1) = (   0.0000000   0.0000000   1.2975146  )
         2        Pb     tau(   2) = (   0.5000000   0.5575334   1.2975146  )
         3        I      tau(   3) = (   0.1918220   0.3306404   1.2342874  )
         4        I      tau(   4) = (   0.8081780   0.7844264   1.3607419  )
         5        I      tau(   5) = (   0.3081780   0.8881738   1.3607419  )
         6        I      tau(   6) = (   0.6918220   0.2268930   1.2342874  )
         7        I      tau(   7) = (  -0.0171213   0.0820389   1.6761079  )
         8        I      tau(   8) = (   0.0171213  -0.0820389   0.9189214  )
         9        I      tau(   9) = (   0.4828787   0.4754945   1.6761079  )
        10        I      tau(  10) = (   0.5171213   0.6395723   0.9189214  )
        11        Cs     tau(  11) = (   0.5344497   0.0419210   1.6298057  )
        12        Cs     tau(  12) = (   0.0344497   0.5156124   1.6298057  )
        13        Cs     tau(  13) = (   0.4655503  -0.0419210   0.9652236  )
        14        Cs     tau(  14) = (  -0.0344497   0.5994544   0.9652236  )

     number of k points=    21
                       cart. coord. in units 2pi/alat
        k(    1) = (   0.5000000   0.4484036   0.0000000), wk =   0.0476190
        k(    2) = (   0.4500000   0.4035632   0.0000000), wk =   0.0476190
        k(    3) = (   0.4000000   0.3587229   0.0000000), wk =   0.0476190
        k(    4) = (   0.3500000   0.3138825   0.0000000), wk =   0.0476190
        k(    5) = (   0.3000000   0.2690422   0.0000000), wk =   0.0476190
        k(    6) = (   0.2500000   0.2242018   0.0000000), wk =   0.0476190
        k(    7) = (   0.2000000   0.1793614   0.0000000), wk =   0.0476190
        k(    8) = (   0.1500000   0.1345211   0.0000000), wk =   0.0476190
        k(    9) = (   0.1000000   0.0896807   0.0000000), wk =   0.0476190
        k(   10) = (   0.0500000   0.0448404   0.0000000), wk =   0.0476190
        k(   11) = (   0.0000000   0.0000000   0.0000000), wk =   0.0476190
        k(   12) = (   0.0500000   0.0000000   0.0000000), wk =   0.0476190
        k(   13) = (   0.1000000   0.0000000   0.0000000), wk =   0.0476190
        k(   14) = (   0.1500000   0.0000000   0.0000000), wk =   0.0476190
        k(   15) = (   0.2000000   0.0000000   0.0000000), wk =   0.0476190
        k(   16) = (   0.2500000   0.0000000   0.0000000), wk =   0.0476190
        k(   17) = (   0.3000000   0.0000000   0.0000000), wk =   0.0476190
        k(   18) = (   0.3500000   0.0000000   0.0000000), wk =   0.0476190
        k(   19) = (   0.4000000   0.0000000   0.0000000), wk =   0.0476190
        k(   20) = (   0.4500000   0.0000000   0.0000000), wk =   0.0476190
        k(   21) = (   0.5000000   0.0000000   0.0000000), wk =   0.0476190

     Dense  grid:  1372589 G-vectors     FFT dimensions: ( 100, 108, 256)

     Estimated max dynamical RAM per process >     650.01 MB

     Estimated total dynamical RAM >       6.35 GB
 ----2D----2D----2D----2D----2D----2D----2D----2D----2D----2D----2D----2D
  The code is running with the 2D cutoff
  Please refer to:
  Sohier, T., Calandra, M., & Mauri, F. (2017), 
  Density functional perturbation theory for gated two-dimensional heterostructures:
  Theoretical developments and application to flexural phonons in graphene.
  Physical Review B, 96(7), 75448. https://doi.org/10.1103/PhysRevB.96.075448
 ----2D----2D----2D----2D----2D----2D----2D----2D----2D----2D----2D----2D

     The potential is recalculated from file :
     /local/data/public/wd324/QEout/CsPbI_15.0_12.5.save/charge-density

     Starting wfcs are  140 randomized atomic wfcs

     Band Structure Calculation
     Davidson diagonalization with overlap
     c_bands:  1 eigenvalues not converged
     c_bands:  1 eigenvalues not converged
     c_bands:  1 eigenvalues not converged
     c_bands:  2 eigenvalues not converged

     ethr =  8.33E-12,  avg # of iterations =101.0

     total cpu time spent up to now is     6754.6 secs

     End of band structure calculation

          k = 0.5000 0.4484 0.0000 (171620 PWs)   bands (ev):

   -25.8075 -25.8075 -25.8075 -25.8075 -25.8065 -25.8065 -25.8065 -25.8065
   -22.5806 -22.5806 -22.5804 -22.5804 -22.5337 -22.5337 -22.5334 -22.5334
   -20.0248 -20.0248 -20.0247 -20.0247 -19.9788 -19.9788 -19.9779 -19.9779
   -19.9586 -19.9586 -19.9580 -19.9580 -16.3835 -16.3835 -16.3833 -16.3833
   -16.3355 -16.3355 -16.3345 -16.3345 -15.7826 -15.7826 -15.7817 -15.7817
   -15.7592 -15.7592 -15.7587 -15.7587 -13.7664 -13.7664 -13.7642 -13.7642
   -13.7590 -13.7590 -13.7576 -13.7576 -12.2240 -12.2240 -12.2063 -12.2063
   -12.1868 -12.1868 -12.1855 -12.1855 -12.1543 -12.1543 -12.1468 -12.1468
   -12.1403 -12.1403 -12.1306 -12.1306 -12.0072 -12.0072 -12.0067 -12.0067
    -7.7801  -7.7801  -7.7511  -7.7511  -7.1000  -7.1000  -7.0010  -7.0010
    -6.8926  -6.8926  -6.8176  -6.8176  -6.6673  -6.6673  -6.6315  -6.6315
    -6.3276  -6.3276  -6.3039  -6.3039  -6.1054  -6.1054  -6.0487  -6.0487
    -5.9979  -5.9979  -5.9387  -5.9387  -5.8392  -5.8392  -5.7414  -5.7414
    -5.6983  -5.6983  -5.6665  -5.6665  -5.4698  -5.4698  -5.4247  -5.4247
    -5.3887  -5.3887  -5.3792  -5.3792  -5.1745  -5.1745  -5.1437  -5.1437
    -3.0807  -3.0807  -2.7294  -2.7294  -1.5540  -1.5540  -1.3323  -1.3323
    -0.5505  -0.5505  -0.4044  -0.4044  -0.1271  -0.1271  -0.1157  -0.1157
    -0.0486  -0.0486  -0.0243  -0.0243

          k = 0.4500 0.4036 0.0000 (171632 PWs)   bands (ev):

   -25.8075 -25.8075 -25.8074 -25.8074 -25.8065 -25.8065 -25.8065 -25.8065
   -22.5806 -22.5806 -22.5804 -22.5804 -22.5337 -22.5337 -22.5335 -22.5335
   -20.0249 -20.0249 -20.0246 -20.0246 -19.9788 -19.9788 -19.9779 -19.9779
   -19.9586 -19.9586 -19.9581 -19.9581 -16.4014 -16.4014 -16.3835 -16.3835
   -16.3332 -16.3332 -16.3171 -16.3171 -15.7825 -15.7825 -15.7816 -15.7816
   -15.7598 -15.7598 -15.7588 -15.7588 -13.7677 -13.7677 -13.7631 -13.7631
   -13.7606 -13.7606 -13.7562 -13.7562 -12.2239 -12.2239 -12.2064 -12.2064
   -12.1866 -12.1866 -12.1853 -12.1853 -12.1549 -12.1549 -12.1485 -12.1485
   -12.1394 -12.1394 -12.1307 -12.1307 -12.0146 -12.0146 -12.0030 -12.0030
    -7.7745  -7.7745  -7.7343  -7.7343  -7.1005  -7.1005  -7.0084  -7.0084
    -6.8957  -6.8957  -6.8232  -6.8232  -6.6668  -6.6668  -6.6342  -6.6342
    -6.3238  -6.3238  -6.3003  -6.3003  -6.1129  -6.1129  -6.0554  -6.0554
    -5.9934  -5.9934  -5.9312  -5.9312  -5.8469  -5.8469  -5.7443  -5.7443
    -5.6933  -5.6933  -5.6651  -5.6651  -5.4703  -5.4703  -5.4263  -5.4263
    -5.3875  -5.3875  -5.3757  -5.3757  -5.1778  -5.1778  -5.1461  -5.1461
    -3.0589  -3.0589  -2.7057  -2.7057  -1.5535  -1.5535  -1.3326  -1.3326
    -0.5745  -0.5745  -0.4248  -0.4248  -0.1786  -0.1786  -0.1500  -0.1500
    -0.0365  -0.0365  -0.0087  -0.0087

          k = 0.4000 0.3587 0.0000 (171620 PWs)   bands (ev):

   -25.8075 -25.8075 -25.8074 -25.8074 -25.8066 -25.8066 -25.8065 -25.8065
   -22.5806 -22.5806 -22.5804 -22.5804 -22.5337 -22.5337 -22.5335 -22.5335
   -20.0252 -20.0252 -20.0241 -20.0241 -19.9788 -19.9788 -19.9779 -19.9779
   -19.9586 -19.9586 -19.9581 -19.9581 -16.4315 -16.4315 -16.3837 -16.3837
   -16.3281 -16.3281 -16.2872 -16.2872 -15.7825 -15.7825 -15.7811 -15.7811
   -15.7621 -15.7621 -15.7587 -15.7587 -13.7697 -13.7697 -13.7639 -13.7639
   -13.7605 -13.7605 -13.7548 -13.7548 -12.2276 -12.2276 -12.2045 -12.2045
   -12.1869 -12.1869 -12.1839 -12.1839 -12.1570 -12.1570 -12.1514 -12.1514
   -12.1387 -12.1387 -12.1303 -12.1303 -12.0351 -12.0351 -11.9901 -11.9901
    -7.7792  -7.7792  -7.6648  -7.6648  -7.1041  -7.1041  -7.0283  -7.0283
    -6.9145  -6.9145  -6.8384  -6.8384  -6.6637  -6.6637  -6.6333  -6.6333
    -6.3208  -6.3208  -6.2871  -6.2871  -6.1313  -6.1313  -6.0634  -6.0634
    -5.9955  -5.9955  -5.9170  -5.9170  -5.8600  -5.8600  -5.7481  -5.7481
    -5.6898  -5.6898  -5.6460  -5.6460  -5.4752  -5.4752  -5.4266  -5.4266
    -5.3842  -5.3842  -5.3669  -5.3669  -5.1893  -5.1893  -5.1460  -5.1460
    -3.0255  -3.0255  -2.6186  -2.6186  -1.5554  -1.5554  -1.3283  -1.3283
    -0.6717  -0.6717  -0.4683  -0.4683  -0.2771  -0.2771  -0.2051  -0.2051
    -0.0444  -0.0444   0.0063   0.0063

          k = 0.3500 0.3139 0.0000 (171577 PWs)   bands (ev):

   -25.8076 -25.8076 -25.8074 -25.8074 -25.8066 -25.8066 -25.8064 -25.8064
   -22.5807 -22.5807 -22.5803 -22.5803 -22.5337 -22.5337 -22.5334 -22.5334
   -20.0258 -20.0258 -20.0235 -20.0235 -19.9788 -19.9788 -19.9779 -19.9779
   -19.9588 -19.9588 -19.9580 -19.9580 -16.4621 -16.4621 -16.3837 -16.3837
   -16.3203 -16.3203 -16.2572 -16.2572 -15.7826 -15.7826 -15.7801 -15.7801
   -15.7659 -15.7659 -15.7585 -15.7585 -13.7719 -13.7719 -13.7665 -13.7665
   -13.7588 -13.7588 -13.7537 -13.7537 -12.2408 -12.2408 -12.1999 -12.1999
   -12.1876 -12.1876 -12.1821 -12.1821 -12.1611 -12.1611 -12.1542 -12.1542
   -12.1405 -12.1405 -12.1285 -12.1285 -12.0612 -12.0612 -11.9664 -11.9664
    -7.7928  -7.7928  -7.5527  -7.5527  -7.1148  -7.1148  -7.0720  -7.0720
    -6.9477  -6.9477  -6.8534  -6.8534  -6.6614  -6.6614  -6.6143  -6.6143
    -6.3251  -6.3251  -6.2675  -6.2675  -6.1493  -6.1493  -6.0685  -6.0685
    -6.0201  -6.0201  -5.9090  -5.9090  -5.8528  -5.8528  -5.7492  -5.7492
    -5.6819  -5.6819  -5.6102  -5.6102  -5.4864  -5.4864  -5.4215  -5.4215
    -5.3784  -5.3784  -5.3565  -5.3565  -5.2046  -5.2046  -5.1392  -5.1392
    -3.0239  -3.0239  -2.4628  -2.4628  -1.5710  -1.5710  -1.3048  -1.3048
    -0.8510  -0.8510  -0.5408  -0.5408  -0.3559  -0.3559  -0.2594  -0.2594
    -0.0747  -0.0747   0.0059   0.0059

          k = 0.3000 0.2690 0.0000 (171601 PWs)   bands (ev):

   -25.8078 -25.8078 -25.8073 -25.8073 -25.8066 -25.8066 -25.8063 -25.8063
   -22.5809 -22.5809 -22.5801 -22.5801 -22.5338 -22.5338 -22.5334 -22.5334
   -20.0265 -20.0265 -20.0226 -20.0226 -19.9789 -19.9789 -19.9779 -19.9779
   -19.9590 -19.9590 -19.9578 -19.9578 -16.4906 -16.4906 -16.3834 -16.3834
   -16.3105 -16.3105 -16.2295 -16.2295 -15.7827 -15.7827 -15.7787 -15.7787
   -15.7707 -15.7707 -15.7582 -15.7582 -13.7742 -13.7742 -13.7691 -13.7691
   -13.7574 -13.7574 -13.7529 -13.7529 -12.2666 -12.2666 -12.1960 -12.1960
   -12.1882 -12.1882 -12.1809 -12.1809 -12.1659 -12.1659 -12.1573 -12.1573
   -12.1439 -12.1439 -12.1264 -12.1264 -12.0839 -12.0839 -11.9307 -11.9307
    -7.8123  -7.8123  -7.4183  -7.4183  -7.1770  -7.1770  -7.1252  -7.1252
    -6.9557  -6.9557  -6.8627  -6.8627  -6.6594  -6.6594  -6.5794  -6.5794
    -6.3311  -6.3311  -6.2490  -6.2490  -6.1609  -6.1609  -6.0852  -6.0852
    -6.0436  -6.0436  -5.9033  -5.9033  -5.8304  -5.8304  -5.7450  -5.7450
    -5.6634  -5.6634  -5.5683  -5.5683  -5.4973  -5.4973  -5.4134  -5.4134
    -5.3704  -5.3704  -5.3464  -5.3464  -5.2183  -5.2183  -5.1274  -5.1274
    -3.0567  -3.0567  -2.2833  -2.2833  -1.6183  -1.6183  -1.2489  -1.2489
    -1.0580  -1.0580  -0.6649  -0.6649  -0.3971  -0.3971  -0.2910  -0.2910
    -0.1199  -0.1199  -0.0058  -0.0058

          k = 0.2500 0.2242 0.0000 (171520 PWs)   bands (ev):

   -25.8079 -25.8079 -25.8073 -25.8073 -25.8067 -25.8067 -25.8062 -25.8062
   -22.5811 -22.5811 -22.5799 -22.5799 -22.5338 -22.5338 -22.5334 -22.5334
   -20.0274 -20.0274 -20.0217 -20.0217 -19.9790 -19.9790 -19.9778 -19.9778
   -19.9593 -19.9593 -19.9577 -19.9577 -16.5160 -16.5160 -16.3827 -16.3827
   -16.2997 -16.2997 -16.2052 -16.2052 -15.7828 -15.7828 -15.7781 -15.7781
   -15.7753 -15.7753 -15.7577 -15.7577 -13.7766 -13.7766 -13.7713 -13.7713
   -13.7563 -13.7563 -13.7523 -13.7523 -12.3044 -12.3044 -12.1947 -12.1947
   -12.1883 -12.1883 -12.1809 -12.1809 -12.1697 -12.1697 -12.1601 -12.1601
   -12.1473 -12.1473 -12.1253 -12.1253 -12.0988 -12.0988 -11.8846 -11.8846
    -7.8373  -7.8373  -7.3374  -7.3374  -7.2643  -7.2643  -7.1419  -7.1419
    -6.9415  -6.9415  -6.8551  -6.8551  -6.6541  -6.6541  -6.5374  -6.5374
    -6.3313  -6.3313  -6.2355  -6.2355  -6.1692  -6.1692  -6.1158  -6.1158
    -6.0450  -6.0450  -5.8950  -5.8950  -5.8120  -5.8120  -5.7320  -5.7320
    -5.6367  -5.6367  -5.5328  -5.5328  -5.4970  -5.4970  -5.4052  -5.4052
    -5.3615  -5.3615  -5.3369  -5.3369  -5.2292  -5.2292  -5.1113  -5.1113
    -3.1157  -3.1157  -2.1379  -2.1379  -1.7155  -1.7155  -1.2740  -1.2740
    -1.1082  -1.1082  -0.8046  -0.8046  -0.4429  -0.4429  -0.2761  -0.2761
    -0.1658  -0.1658  -0.0317  -0.0317

          k = 0.2000 0.1794 0.0000 (171523 PWs)   bands (ev):

   -25.8080 -25.8080 -25.8073 -25.8073 -25.8067 -25.8067 -25.8061 -25.8061
   -22.5813 -22.5813 -22.5797 -22.5797 -22.5339 -22.5339 -22.5333 -22.5333
   -20.0282 -20.0282 -20.0208 -20.0208 -19.9791 -19.9791 -19.9776 -19.9776
   -19.9595 -19.9595 -19.9574 -19.9574 -16.5376 -16.5376 -16.3818 -16.3818
   -16.2888 -16.2888 -16.1851 -16.1851 -15.7841 -15.7841 -15.7818 -15.7818
   -15.7744 -15.7744 -15.7573 -15.7573 -13.7789 -13.7789 -13.7732 -13.7732
   -13.7556 -13.7556 -13.7517 -13.7517 -12.3480 -12.3480 -12.1954 -12.1954
   -12.1886 -12.1886 -12.1817 -12.1817 -12.1721 -12.1721 -12.1622 -12.1622
   -12.1500 -12.1500 -12.1254 -12.1254 -12.1072 -12.1072 -11.8327 -11.8327
    -7.8688  -7.8688  -7.4677  -7.4677  -7.1953  -7.1953  -7.1443  -7.1443
    -6.9257  -6.9257  -6.8089  -6.8089  -6.6431  -6.6431  -6.4921  -6.4921
    -6.3242  -6.3242  -6.2282  -6.2282  -6.1813  -6.1813  -6.1298  -6.1298
    -6.0407  -6.0407  -5.8834  -5.8834  -5.8040  -5.8040  -5.7125  -5.7125
    -5.6065  -5.6065  -5.5184  -5.5184  -5.4717  -5.4717  -5.3994  -5.3994
    -5.3533  -5.3533  -5.3265  -5.3265  -5.2369  -5.2369  -5.0900  -5.0900
    -3.1979  -3.1979  -2.0951  -2.0951  -1.8233  -1.8233  -1.3711  -1.3711
    -1.0212  -1.0212  -0.9010  -0.9010  -0.4885  -0.4885  -0.2314  -0.2314
    -0.1941  -0.1941  -0.0642  -0.0642

          k = 0.1500 0.1345 0.0000 (171504 PWs)   bands (ev):

   -25.8080 -25.8080 -25.8072 -25.8072 -25.8068 -25.8068 -25.8060 -25.8060
   -22.5814 -22.5814 -22.5796 -22.5796 -22.5340 -22.5340 -22.5332 -22.5332
   -20.0290 -20.0290 -20.0199 -20.0199 -19.9793 -19.9793 -19.9775 -19.9775
   -19.9598 -19.9598 -19.9572 -19.9572 -16.5549 -16.5549 -16.3808 -16.3808
   -16.2788 -16.2788 -16.1693 -16.1693 -15.7894 -15.7894 -15.7823 -15.7823
   -15.7725 -15.7725 -15.7569 -15.7569 -13.7809 -13.7809 -13.7749 -13.7749
   -13.7549 -13.7549 -13.7514 -13.7514 -12.3894 -12.3894 -12.1966 -12.1966
   -12.1893 -12.1893 -12.1835 -12.1835 -12.1732 -12.1732 -12.1631 -12.1631
   -12.1522 -12.1522 -12.1261 -12.1261 -12.1121 -12.1121 -11.7815 -11.7815
    -7.9089  -7.9089  -7.5887  -7.5887  -7.1874  -7.1874  -7.1222  -7.1222
    -6.9086  -6.9086  -6.7439  -6.7439  -6.6228  -6.6228  -6.4438  -6.4438
    -6.3151  -6.3151  -6.2274  -6.2274  -6.1953  -6.1953  -6.1162  -6.1162
    -6.0343  -6.0343  -5.8724  -5.8724  -5.8009  -5.8009  -5.6974  -5.6974
    -5.5787  -5.5787  -5.5034  -5.5034  -5.4432  -5.4432  -5.3972  -5.3972
    -5.3479  -5.3479  -5.3143  -5.3143  -5.2415  -5.2415  -5.0613  -5.0613
    -3.3016  -3.3016  -2.2068  -2.2068  -1.8353  -1.8353  -1.4189  -1.4189
    -1.0933  -1.0933  -0.8334  -0.8334  -0.5096  -0.5096  -0.2308  -0.2308
    -0.1549  -0.1549  -0.0760  -0.0760

          k = 0.1000 0.0897 0.0000 (171501 PWs)   bands (ev):

   -25.8081 -25.8081 -25.8072 -25.8072 -25.8068 -25.8068 -25.8059 -25.8059
   -22.5815 -22.5815 -22.5794 -22.5794 -22.5340 -22.5340 -22.5332 -22.5332
   -20.0296 -20.0296 -20.0193 -20.0193 -19.9794 -19.9794 -19.9774 -19.9774
   -19.9599 -19.9599 -19.9571 -19.9571 -16.5675 -16.5675 -16.3799 -16.3799
   -16.2706 -16.2706 -16.1581 -16.1581 -15.7943 -15.7943 -15.7824 -15.7824
   -15.7707 -15.7707 -15.7566 -15.7566 -13.7823 -13.7823 -13.7763 -13.7763
   -13.7544 -13.7544 -13.7513 -13.7513 -12.4229 -12.4229 -12.1977 -12.1977
   -12.1900 -12.1900 -12.1858 -12.1858 -12.1734 -12.1734 -12.1631 -12.1631
   -12.1542 -12.1542 -12.1264 -12.1264 -12.1152 -12.1152 -11.7379 -11.7379
    -7.9559  -7.9559  -7.6715  -7.6715  -7.1940  -7.1940  -7.1137  -7.1137
    -6.8887  -6.8887  -6.7057  -6.7057  -6.5931  -6.5931  -6.3946  -6.3946
    -6.3108  -6.3108  -6.2397  -6.2397  -6.1969  -6.1969  -6.0821  -6.0821
    -6.0199  -6.0199  -5.8721  -5.8721  -5.7919  -5.7919  -5.6962  -5.6962
    -5.5551  -5.5551  -5.4807  -5.4807  -5.4266  -5.4266  -5.3967  -5.3967
    -5.3447  -5.3447  -5.3003  -5.3003  -5.2451  -5.2451  -5.0246  -5.0246
    -3.4171  -3.4171  -2.3455  -2.3455  -1.8136  -1.8136  -1.4389  -1.4389
    -1.1829  -1.1829  -0.7829  -0.7829  -0.4914  -0.4914  -0.2336  -0.2336
    -0.1554  -0.1554  -0.0746  -0.0746

          k = 0.0500 0.0448 0.0000 (171560 PWs)   bands (ev):

   -25.8082 -25.8082 -25.8072 -25.8072 -25.8068 -25.8068 -25.8059 -25.8059
   -22.5816 -22.5816 -22.5794 -22.5794 -22.5341 -22.5341 -22.5332 -22.5332
   -20.0300 -20.0300 -20.0189 -20.0189 -19.9795 -19.9795 -19.9773 -19.9773
   -19.9600 -19.9600 -19.9569 -19.9569 -16.5752 -16.5752 -16.3793 -16.3793
   -16.2653 -16.2653 -16.1515 -16.1515 -15.7976 -15.7976 -15.7824 -15.7824
   -15.7695 -15.7695 -15.7564 -15.7564 -13.7832 -13.7832 -13.7773 -13.7773
   -13.7539 -13.7539 -13.7514 -13.7514 -12.4444 -12.4444 -12.1984 -12.1984
   -12.1901 -12.1901 -12.1880 -12.1880 -12.1735 -12.1735 -12.1622 -12.1622
   -12.1563 -12.1563 -12.1263 -12.1263 -12.1172 -12.1172 -11.7086 -11.7086
    -7.9962  -7.9962  -7.7150  -7.7150  -7.1990  -7.1990  -7.1140  -7.1140
    -6.8723  -6.8723  -6.6936  -6.6936  -6.5703  -6.5703  -6.3528  -6.3528
    -6.3123  -6.3123  -6.2586  -6.2586  -6.1934  -6.1934  -6.0581  -6.0581
    -5.9796  -5.9796  -5.8908  -5.8908  -5.7713  -5.7713  -5.7102  -5.7102
    -5.5367  -5.5367  -5.4572  -5.4572  -5.4268  -5.4268  -5.3967  -5.3967
    -5.3415  -5.3415  -5.2842  -5.2842  -5.2517  -5.2517  -4.9881  -4.9881
    -3.5157  -3.5157  -2.4369  -2.4369  -1.7985  -1.7985  -1.4454  -1.4454
    -1.2426  -1.2426  -0.7741  -0.7741  -0.4589  -0.4589  -0.2227  -0.2227
    -0.1694  -0.1694  -0.1263  -0.1263

          k = 0.0000 0.0000 0.0000 (171633 PWs)   bands (ev):

   -25.8082 -25.8082 -25.8072 -25.8072 -25.8068 -25.8068 -25.8059 -25.8059
   -22.5817 -22.5817 -22.5793 -22.5793 -22.5341 -22.5341 -22.5331 -22.5331
   -20.0302 -20.0302 -20.0188 -20.0188 -19.9795 -19.9795 -19.9773 -19.9773
   -19.9601 -19.9601 -19.9569 -19.9569 -16.5777 -16.5777 -16.3791 -16.3791
   -16.2635 -16.2635 -16.1493 -16.1493 -15.7987 -15.7987 -15.7824 -15.7824
   -15.7690 -15.7690 -15.7564 -15.7564 -13.7835 -13.7835 -13.7776 -13.7776
   -13.7537 -13.7537 -13.7514 -13.7514 -12.4518 -12.4518 -12.1986 -12.1986
   -12.1895 -12.1895 -12.1894 -12.1894 -12.1735 -12.1735 -12.1615 -12.1615
   -12.1574 -12.1574 -12.1261 -12.1261 -12.1180 -12.1180 -11.6982 -11.6982
    -8.0121  -8.0121  -7.7280  -7.7280  -7.2008  -7.2008  -7.1149  -7.1149
    -6.8659  -6.8659  -6.6914  -6.6914  -6.5626  -6.5626  -6.3301  -6.3301
    -6.3180  -6.3180  -6.2691  -6.2691  -6.1919  -6.1919  -6.0530  -6.0530
    -5.9313  -5.9313  -5.9255  -5.9255  -5.7530  -5.7530  -5.7263  -5.7263
    -5.5292  -5.5292  -5.4387  -5.4387  -5.4378  -5.4378  -5.3975  -5.3975
    -5.3399  -5.3399  -5.2723  -5.2723  -5.2597  -5.2597  -4.9718  -4.9718
    -3.5557  -3.5557  -2.4676  -2.4676  -1.7935  -1.7935  -1.4466  -1.4466
    -1.2635  -1.2635  -0.7748  -0.7748  -0.4447  -0.4447  -0.2114  -0.2114
    -0.1662  -0.1662  -0.1613  -0.1613

          k = 0.0500 0.0000 0.0000 (171549 PWs)   bands (ev):

   -25.8082 -25.8082 -25.8072 -25.8072 -25.8068 -25.8068 -25.8059 -25.8059
   -22.5816 -22.5816 -22.5793 -22.5793 -22.5341 -22.5341 -22.5332 -22.5332
   -20.0301 -20.0301 -20.0188 -20.0188 -19.9795 -19.9795 -19.9773 -19.9773
   -19.9600 -19.9600 -19.9569 -19.9569 -16.5762 -16.5762 -16.3777 -16.3777
   -16.2660 -16.2660 -16.1507 -16.1507 -15.7981 -15.7981 -15.7824 -15.7824
   -15.7692 -15.7692 -15.7565 -15.7565 -13.7832 -13.7832 -13.7774 -13.7774
   -13.7537 -13.7537 -13.7515 -13.7515 -12.4479 -12.4479 -12.1984 -12.1984
   -12.1902 -12.1902 -12.1882 -12.1882 -12.1734 -12.1734 -12.1616 -12.1616
   -12.1565 -12.1565 -12.1261 -12.1261 -12.1179 -12.1179 -11.7032 -11.7032
    -8.0051  -8.0051  -7.7202  -7.7202  -7.1996  -7.1996  -7.1132  -7.1132
    -6.8679  -6.8679  -6.6945  -6.6945  -6.5644  -6.5644  -6.3412  -6.3412
    -6.3128  -6.3128  -6.2678  -6.2678  -6.1923  -6.1923  -6.0556  -6.0556
    -5.9753  -5.9753  -5.8879  -5.8879  -5.7686  -5.7686  -5.7145  -5.7145
    -5.5335  -5.5335  -5.4539  -5.4539  -5.4260  -5.4260  -5.4006  -5.4006
    -5.3421  -5.3421  -5.2833  -5.2833  -5.2533  -5.2533  -4.9809  -4.9809
    -3.5337  -3.5337  -2.4524  -2.4524  -1.7955  -1.7955  -1.4454  -1.4454
    -1.2526  -1.2526  -0.7726  -0.7726  -0.4512  -0.4512  -0.2241  -0.2241
    -0.1607  -0.1607  -0.1422  -0.1422

          k = 0.1000 0.0000 0.0000 (171451 PWs)   bands (ev):

   -25.8081 -25.8081 -25.8072 -25.8072 -25.8068 -25.8068 -25.8059 -25.8059
   -22.5816 -22.5816 -22.5794 -22.5794 -22.5340 -22.5340 -22.5332 -22.5332
   -20.0299 -20.0299 -20.0190 -20.0190 -19.9794 -19.9794 -19.9773 -19.9773
   -19.9600 -19.9600 -19.9570 -19.9570 -16.5715 -16.5715 -16.3737 -16.3737
   -16.2735 -16.2735 -16.1551 -16.1551 -15.7964 -15.7964 -15.7826 -15.7826
   -15.7699 -15.7699 -15.7569 -15.7569 -13.7822 -13.7822 -13.7766 -13.7766
   -13.7538 -13.7538 -13.7516 -13.7516 -12.4364 -12.4364 -12.1978 -12.1978
   -12.1903 -12.1903 -12.1864 -12.1864 -12.1732 -12.1732 -12.1615 -12.1615
   -12.1541 -12.1541 -12.1262 -12.1262 -12.1179 -12.1179 -11.7182 -11.7182
    -7.9840  -7.9840  -7.6971  -7.6971  -7.1961  -7.1961  -7.1086  -7.1086
    -6.8738  -6.8738  -6.7037  -6.7037  -6.5706  -6.5706  -6.3620  -6.3620
    -6.3082  -6.3082  -6.2656  -6.2656  -6.1934  -6.1934  -6.0698  -6.0698
    -6.0157  -6.0157  -5.8649  -5.8649  -5.7869  -5.7869  -5.7008  -5.7008
    -5.5467  -5.5467  -5.4722  -5.4722  -5.4192  -5.4192  -5.4086  -5.4086
    -5.3481  -5.3481  -5.3004  -5.3004  -5.2488  -5.2488  -5.0052  -5.0052
    -3.4705  -3.4705  -2.4083  -2.4083  -1.8012  -1.8012  -1.4413  -1.4413
    -1.2207  -1.2207  -0.7684  -0.7684  -0.4680  -0.4680  -0.2396  -0.2396
    -0.1554  -0.1554  -0.0992  -0.0992

          k = 0.1500 0.0000 0.0000 (171521 PWs)   bands (ev):

   -25.8081 -25.8081 -25.8071 -25.8071 -25.8069 -25.8069 -25.8060 -25.8060
   -22.5815 -22.5815 -22.5795 -22.5795 -22.5340 -22.5340 -22.5332 -22.5332
   -20.0296 -20.0296 -20.0194 -20.0194 -19.9794 -19.9794 -19.9774 -19.9774
   -19.9599 -19.9599 -19.9571 -19.9571 -16.5637 -16.5637 -16.3672 -16.3672
   -16.2855 -16.2855 -16.1624 -16.1624 -15.7938 -15.7938 -15.7829 -15.7829
   -15.7709 -15.7709 -15.7576 -15.7576 -13.7808 -13.7808 -13.7754 -13.7754
   -13.7540 -13.7540 -13.7518 -13.7518 -12.4176 -12.4176 -12.1968 -12.1968
   -12.1900 -12.1900 -12.1842 -12.1842 -12.1730 -12.1730 -12.1608 -12.1608
   -12.1508 -12.1508 -12.1263 -12.1263 -12.1178 -12.1178 -11.7424 -11.7424
    -7.9494  -7.9494  -7.6595  -7.6595  -7.1903  -7.1903  -7.1031  -7.1031
    -6.8833  -6.8833  -6.7190  -6.7190  -6.5828  -6.5828  -6.3876  -6.3876
    -6.3062  -6.3062  -6.2664  -6.2664  -6.1943  -6.1943  -6.1059  -6.1059
    -6.0325  -6.0325  -5.8750  -5.8750  -5.7845  -5.7845  -5.6937  -5.6937
    -5.5695  -5.5695  -5.4907  -5.4907  -5.4351  -5.4351  -5.4056  -5.4056
    -5.3561  -5.3561  -5.3179  -5.3179  -5.2488  -5.2488  -5.0376  -5.0376
    -3.3738  -3.3738  -2.3388  -2.3388  -1.8105  -1.8105  -1.4334  -1.4334
    -1.1709  -1.1709  -0.7694  -0.7694  -0.4862  -0.4862  -0.2497  -0.2497
    -0.1490  -0.1490  -0.0568  -0.0568

          k = 0.2000 0.0000 0.0000 (171480 PWs)   bands (ev):

   -25.8080 -25.8080 -25.8071 -25.8071 -25.8069 -25.8069 -25.8060 -25.8060
   -22.5814 -22.5814 -22.5795 -22.5795 -22.5340 -22.5340 -22.5332 -22.5332
   -20.0291 -20.0291 -20.0198 -20.0198 -19.9793 -19.9793 -19.9775 -19.9775
   -19.9598 -19.9598 -19.9572 -19.9572 -16.5530 -16.5530 -16.3582 -16.3582
   -16.3014 -16.3014 -16.1722 -16.1722 -15.7906 -15.7906 -15.7832 -15.7832
   -15.7723 -15.7723 -15.7586 -15.7586 -13.7788 -13.7788 -13.7738 -13.7738
   -13.7543 -13.7543 -13.7521 -13.7521 -12.3921 -12.3921 -12.1957 -12.1957
   -12.1891 -12.1891 -12.1818 -12.1818 -12.1729 -12.1729 -12.1592 -12.1592
   -12.1466 -12.1466 -12.1264 -12.1264 -12.1178 -12.1178 -11.7750 -11.7750
    -7.9017  -7.9017  -7.6089  -7.6089  -7.1825  -7.1825  -7.0997  -7.0997
    -6.8966  -6.8966  -6.7407  -6.7407  -6.6023  -6.6023  -6.4156  -6.4156
    -6.3068  -6.3068  -6.2744  -6.2744  -6.1935  -6.1935  -6.1427  -6.1427
    -6.0374  -6.0374  -5.9055  -5.9055  -5.7735  -5.7735  -5.6935  -5.6935
    -5.6013  -5.6013  -5.5071  -5.5071  -5.4639  -5.4639  -5.4010  -5.4010
    -5.3653  -5.3653  -5.3335  -5.3335  -5.2503  -5.2503  -5.0711  -5.0711
    -3.2526  -3.2526  -2.2519  -2.2519  -1.8206  -1.8206  -1.4201  -1.4201
    -1.1084  -1.1084  -0.7849  -0.7849  -0.4940  -0.4940  -0.2572  -0.2572
    -0.1562  -0.1562  -0.0968  -0.0968

          k = 0.2500 0.0000 0.0000 (171500 PWs)   bands (ev):

   -25.8080 -25.8080 -25.8070 -25.8070 -25.8070 -25.8070 -25.8061 -25.8061
   -22.5813 -22.5813 -22.5797 -22.5797 -22.5339 -22.5339 -22.5333 -22.5333
   -20.0285 -20.0285 -20.0204 -20.0204 -19.9792 -19.9792 -19.9776 -19.9776
   -19.9596 -19.9596 -19.9574 -19.9574 -16.5395 -16.5395 -16.3470 -16.3470
   -16.3205 -16.3205 -16.1843 -16.1843 -15.7870 -15.7870 -15.7834 -15.7834
   -15.7738 -15.7738 -15.7598 -15.7598 -13.7765 -13.7765 -13.7719 -13.7719
   -13.7549 -13.7549 -13.7527 -13.7527 -12.3608 -12.3608 -12.1948 -12.1948
   -12.1877 -12.1877 -12.1793 -12.1793 -12.1731 -12.1731 -12.1567 -12.1567
   -12.1420 -12.1420 -12.1264 -12.1264 -12.1178 -12.1178 -11.8145 -11.8145
    -7.8419  -7.8419  -7.5472  -7.5472  -7.1742  -7.1742  -7.1019  -7.1019
    -6.9146  -6.9146  -6.7708  -6.7708  -6.6268  -6.6268  -6.4446  -6.4446
    -6.3129  -6.3129  -6.2883  -6.2883  -6.1896  -6.1896  -6.1624  -6.1624
    -6.0405  -6.0405  -5.9390  -5.9390  -5.7753  -5.7753  -5.6955  -5.6955
    -5.6395  -5.6395  -5.5211  -5.5211  -5.4948  -5.4948  -5.4033  -5.4033
    -5.3736  -5.3736  -5.3440  -5.3440  -5.2503  -5.2503  -5.1018  -5.1018
    -3.1150  -3.1150  -2.1650  -2.1650  -1.8206  -1.8206  -1.3996  -1.3996
    -1.0439  -1.0439  -0.8146  -0.8146  -0.4859  -0.4859  -0.2736  -0.2736
    -0.2426  -0.2426  -0.1062  -0.1062

          k = 0.3000 0.0000 0.0000 (171510 PWs)   bands (ev):

   -25.8079 -25.8079 -25.8071 -25.8071 -25.8069 -25.8069 -25.8062 -25.8062
   -22.5812 -22.5812 -22.5798 -22.5798 -22.5339 -22.5339 -22.5333 -22.5333
   -20.0278 -20.0278 -20.0211 -20.0211 -19.9790 -19.9790 -19.9777 -19.9777
   -19.9594 -19.9594 -19.9576 -19.9576 -16.5234 -16.5234 -16.3427 -16.3427
   -16.3331 -16.3331 -16.1985 -16.1985 -15.7837 -15.7837 -15.7831 -15.7831
   -15.7754 -15.7754 -15.7613 -15.7613 -13.7739 -13.7739 -13.7697 -13.7697
   -13.7556 -13.7556 -13.7534 -13.7534 -12.3252 -12.3252 -12.1945 -12.1945
   -12.1855 -12.1855 -12.1768 -12.1768 -12.1733 -12.1733 -12.1534 -12.1534
   -12.1380 -12.1380 -12.1259 -12.1259 -12.1173 -12.1173 -11.8595 -11.8595
    -7.7712  -7.7712  -7.4771  -7.4771  -7.1705  -7.1705  -7.1089  -7.1089
    -6.9396  -6.9396  -6.8125  -6.8125  -6.6470  -6.6470  -6.4748  -6.4748
    -6.3267  -6.3267  -6.2981  -6.2981  -6.1830  -6.1830  -6.1633  -6.1633
    -6.0462  -6.0462  -5.9675  -5.9675  -5.7985  -5.7985  -5.7017  -5.7017
    -5.6744  -5.6744  -5.5409  -5.5409  -5.5123  -5.5123  -5.4176  -5.4176
    -5.3747  -5.3747  -5.3494  -5.3494  -5.2474  -5.2474  -5.1286  -5.1286
    -2.9682  -2.9682  -2.1146  -2.1146  -1.7810  -1.7810  -1.3701  -1.3701
    -1.0083  -1.0083  -0.8281  -0.8281  -0.4816  -0.4816  -0.3702  -0.3702
    -0.2789  -0.2789  -0.0879  -0.0879

          k = 0.3500 0.0000 0.0000 (171482 PWs)   bands (ev):

   -25.8078 -25.8078 -25.8071 -25.8071 -25.8068 -25.8068 -25.8062 -25.8062
   -22.5810 -22.5810 -22.5800 -22.5800 -22.5338 -22.5338 -22.5334 -22.5334
   -20.0271 -20.0271 -20.0219 -20.0219 -19.9789 -19.9789 -19.9779 -19.9779
   -19.9592 -19.9592 -19.9578 -19.9578 -16.5049 -16.5049 -16.3656 -16.3656
   -16.3185 -16.3185 -16.2143 -16.2143 -15.7835 -15.7835 -15.7800 -15.7800
   -15.7767 -15.7767 -15.7630 -15.7630 -13.7712 -13.7712 -13.7675 -13.7675
   -13.7566 -13.7566 -13.7544 -13.7544 -12.2878 -12.2878 -12.1953 -12.1953
   -12.1826 -12.1826 -12.1743 -12.1743 -12.1728 -12.1728 -12.1495 -12.1495
   -12.1364 -12.1364 -12.1256 -12.1256 -12.1137 -12.1137 -11.9081 -11.9081
    -7.6913  -7.6913  -7.4031  -7.4031  -7.1860  -7.1860  -7.1087  -7.1087
    -6.9732  -6.9732  -6.8666  -6.8666  -6.6533  -6.6533  -6.5064  -6.5064
    -6.3388  -6.3388  -6.3050  -6.3050  -6.1759  -6.1759  -6.1486  -6.1486
    -6.0585  -6.0585  -5.9852  -5.9852  -5.8344  -5.8344  -5.7458  -5.7458
    -5.6722  -5.6722  -5.5661  -5.5661  -5.5140  -5.5140  -5.4368  -5.4368
    -5.3719  -5.3719  -5.3525  -5.3525  -5.2414  -5.2414  -5.1520  -5.1520
    -2.8181  -2.8181  -2.1288  -2.1288  -1.6812  -1.6812  -1.3295  -1.3295
    -1.0391  -1.0391  -0.7893  -0.7893  -0.5725  -0.5725  -0.3888  -0.3888
    -0.3092  -0.3092  -0.0841  -0.0841

          k = 0.4000 0.0000 0.0000 (171526 PWs)   bands (ev):

   -25.8077 -25.8077 -25.8072 -25.8072 -25.8067 -25.8067 -25.8063 -25.8063
   -22.5809 -22.5809 -22.5801 -22.5801 -22.5337 -22.5337 -22.5335 -22.5335
   -20.0262 -20.0262 -20.0227 -20.0227 -19.9787 -19.9787 -19.9780 -19.9780
   -19.9590 -19.9590 -19.9580 -19.9580 -16.4844 -16.4844 -16.3898 -16.3898
   -16.3023 -16.3023 -16.2313 -16.2313 -15.7832 -15.7832 -15.7794 -15.7794
   -15.7755 -15.7755 -15.7650 -15.7650 -13.7686 -13.7686 -13.7655 -13.7655
   -13.7577 -13.7577 -13.7556 -13.7556 -12.2529 -12.2529 -12.1977 -12.1977
   -12.1797 -12.1797 -12.1744 -12.1744 -12.1671 -12.1671 -12.1453 -12.1453
   -12.1373 -12.1373 -12.1273 -12.1273 -12.1033 -12.1033 -11.9583 -11.9583
    -7.6044  -7.6044  -7.3404  -7.3404  -7.2173  -7.2173  -7.0942  -7.0942
    -7.0144  -7.0144  -6.9276  -6.9276  -6.6447  -6.6447  -6.5387  -6.5387
    -6.3428  -6.3428  -6.3127  -6.3127  -6.1661  -6.1661  -6.1266  -6.1266
    -6.0746  -6.0746  -5.9944  -5.9944  -5.8691  -5.8691  -5.7984  -5.7984
    -5.6596  -5.6596  -5.5892  -5.5892  -5.5086  -5.5086  -5.4555  -5.4555
    -5.3682  -5.3682  -5.3550  -5.3550  -5.2324  -5.2324  -5.1726  -5.1726
    -2.6699  -2.6699  -2.1914  -2.1914  -1.5456  -1.5456  -1.2742  -1.2742
    -1.1069  -1.1069  -0.7930  -0.7930  -0.6450  -0.6450  -0.3587  -0.3587
    -0.3497  -0.3497  -0.1449  -0.1449

          k = 0.4500 0.0000 0.0000 (171576 PWs)   bands (ev):

   -25.8076 -25.8076 -25.8073 -25.8073 -25.8066 -25.8066 -25.8064 -25.8064
   -22.5807 -22.5807 -22.5803 -22.5803 -22.5337 -22.5337 -22.5335 -22.5335
   -20.0254 -20.0254 -20.0236 -20.0236 -19.9786 -19.9786 -19.9782 -19.9782
   -19.9588 -19.9588 -19.9583 -19.9583 -16.4622 -16.4622 -16.4144 -16.4144
   -16.2850 -16.2850 -16.2490 -16.2490 -15.7826 -15.7826 -15.7806 -15.7806
   -15.7726 -15.7726 -15.7672 -15.7672 -13.7662 -13.7662 -13.7642 -13.7642
   -13.7586 -13.7586 -13.7570 -13.7570 -12.2264 -12.2264 -12.2022 -12.2022
   -12.1776 -12.1776 -12.1751 -12.1751 -12.1575 -12.1575 -12.1427 -12.1427
   -12.1388 -12.1388 -12.1308 -12.1308 -12.0833 -12.0833 -12.0071 -12.0071
    -7.5140  -7.5140  -7.3512  -7.3512  -7.1974  -7.1974  -7.0799  -7.0799
    -7.0548  -7.0548  -6.9859  -6.9859  -6.6254  -6.6254  -6.5702  -6.5702
    -6.3396  -6.3396  -6.3220  -6.3220  -6.1527  -6.1527  -6.1205  -6.1205
    -6.0696  -6.0696  -6.0093  -6.0093  -5.8866  -5.8866  -5.8446  -5.8446
    -5.6447  -5.6447  -5.6097  -5.6097  -5.4993  -5.4993  -5.4724  -5.4724
    -5.3645  -5.3645  -5.3578  -5.3578  -5.2208  -5.2208  -5.1908  -5.1908
    -2.5284  -2.5284  -2.2842  -2.2842  -1.4053  -1.4053  -1.2053  -1.2053
    -1.1779  -1.1779  -0.9309  -0.9309  -0.5809  -0.5809  -0.4199  -0.4199
    -0.3075  -0.3075  -0.2044  -0.2044

          k = 0.5000 0.0000 0.0000 (171484 PWs)   bands (ev):

   -25.8075 -25.8075 -25.8075 -25.8075 -25.8065 -25.8065 -25.8065 -25.8065
   -22.5805 -22.5805 -22.5805 -22.5805 -22.5336 -22.5336 -22.5336 -22.5336
   -20.0245 -20.0245 -20.0245 -20.0245 -19.9784 -19.9784 -19.9784 -19.9784
   -19.9585 -19.9585 -19.9585 -19.9585 -16.4387 -16.4387 -16.4387 -16.4387
   -16.2671 -16.2671 -16.2671 -16.2671 -15.7817 -15.7817 -15.7817 -15.7817
   -15.7697 -15.7697 -15.7697 -15.7697 -13.7645 -13.7645 -13.7645 -13.7645
   -13.7582 -13.7582 -13.7582 -13.7582 -12.2106 -12.2106 -12.2106 -12.2106
   -12.1761 -12.1761 -12.1761 -12.1761 -12.1478 -12.1478 -12.1478 -12.1478
   -12.1353 -12.1353 -12.1353 -12.1353 -12.0506 -12.0506 -12.0506 -12.0506
    -7.4253  -7.4253  -7.4253  -7.4253  -7.1324  -7.1324  -7.1324  -7.1324
    -7.0316  -7.0316  -7.0316  -7.0316  -6.5997  -6.5997  -6.5997  -6.5997
    -6.3316  -6.3316  -6.3316  -6.3316  -6.1361  -6.1361  -6.1361  -6.1361
    -6.0384  -6.0384  -6.0384  -6.0384  -5.8766  -5.8766  -5.8766  -5.8766
    -5.6281  -5.6281  -5.6281  -5.6281  -5.4871  -5.4871  -5.4871  -5.4871
    -5.3610  -5.3610  -5.3610  -5.3610  -5.2068  -5.2068  -5.2068  -5.2068
    -2.3983  -2.3983  -2.3983  -2.3983  -1.2857  -1.2857  -1.2857  -1.2857
    -1.0769  -1.0769  -1.0769  -1.0769  -0.4975  -0.4975  -0.4975  -0.4975
    -0.2583  -0.2583  -0.2583  -0.2583

     highest occupied, lowest unoccupied level (ev):    -4.9718   -3.5557

     Writing all to output data dir /local/data/public/wd324/QEout/CsPbI_15.0_12.5.save/ :
     XML data file, pseudopotentials, collected wavefunctions

     init_run     :      1.58s CPU      1.70s WALL (       1 calls)
     electrons    :   6531.45s CPU   6752.56s WALL (       1 calls)

     Called by init_run:
     wfcinit      :      0.00s CPU      0.00s WALL (       1 calls)
     potinit      :      0.32s CPU      0.39s WALL (       1 calls)
     hinit0       :      0.51s CPU      0.53s WALL (       1 calls)

     Called by electrons:
     c_bands      :   6531.45s CPU   6752.56s WALL (       1 calls)
     v_of_rho     :      0.22s CPU      0.25s WALL (       1 calls)

     Called by c_bands:
     init_us_2    :      2.65s CPU      2.75s WALL (      21 calls)
     cegterg      :   6354.51s CPU   6566.54s WALL (     115 calls)

     Called by *egterg:
     cdiaghg      :     53.85s CPU     53.89s WALL (    2143 calls)
     h_psi        :   5054.08s CPU   5251.79s WALL (    2258 calls)
     g_psi        :     21.56s CPU     21.58s WALL (    2122 calls)

     Called by h_psi:
     h_psi:calbec :    540.20s CPU    544.09s WALL (    2258 calls)
     vloc_psi     :   4065.90s CPU   4248.10s WALL (    2258 calls)
     add_vuspsi   :    419.42s CPU    420.08s WALL (    2258 calls)

     General routines
     calbec       :    540.19s CPU    544.08s WALL (    2258 calls)
     fft          :      0.52s CPU      0.55s WALL (      14 calls)
     fftw         :   2863.11s CPU   3042.39s WALL (  493104 calls)
     davcio       :      0.02s CPU      3.66s WALL (      42 calls)

     Parallel routines

     PWSCF        :      1h49m CPU      1h52m WALL


   This run was terminated on:  20:23:28  11Jul2025            

=------------------------------------------------------------------------------=
   JOB DONE.
=------------------------------------------------------------------------------=
