
     Program PWSCF v.7.4.1 starts on 11Jul2025 at 18:30:29 
        Git branch: HEAD
        Last git commit: 500de340b820e1cb8c05f2d8bb8fced102f377c1
        Last git commit date: Fri Feb 7 14:59:05 2025 +0000
        Last git commit subject: Merge branch 'qe-7.4.1' into 'master'

     This program is part of the open-source Quantum ESPRESSO suite
     for quantum simulation of materials; please cite
         "P. Giannozzi et al., J. Phys.:Condens. Matter 21 395502 (2009);
         "P. Giannozzi et al., J. Phys.:Condens. Matter 29 465901 (2017);
         "P. Giannozzi et al., J. Chem. Phys. 152 154105 (2020);
          URL http://www.quantum-espresso.org", 
     in publications or presentations arising from this work. More details at
     http://www.quantum-espresso.org/quote

     Parallel version (MPI), running on    10 processors

     MPI processes distributed on     1 nodes
     29541 MiB available memory on the printing compute node when the environment starts

     Reading input from ./CurrentScp/CsPbI_0.0_0.0_nscf.in

     Current dimensions of program PWSCF are:
     Max number of different atomic species (ntypx) = 10
     Max number of k-points (npk) =  40000
     Max angular momentum in pseudopotentials (lmaxx) =  4

     Atomic positions and unit cell read from directory:
     /local/data/public/wd324/QEout/CsPbI_0.0_0.0.save/

     Found identity + ( -0.5000 -0.5000  0.0000) symmetry
     This is a supercell, fractional translations are disabled
     Message from routine setup:
     using ibrav=0 with symmetry is DISCOURAGED, use correct ibrav instead

     R & G space division:  proc/nbgrp/npool/nimage =      10
     Subspace diagonalization in iterative solution of the eigenvalue problem:
     a serial algorithm will be used


     Parallelization info
     --------------------
     sticks:   dense  smooth     PW     G-vecs:    dense   smooth      PW
     Min         810     810    214               135798   135798   18416
     Max         812     812    215               135803   135803   18423
     Sum        8109    8109   2145              1358007  1358007  184193

     Using Slab Decomposition



     bravais-lattice index     =            0
     lattice parameter (alat)  =      16.8278  a.u.
     unit-cell volume          =   11772.6419 (a.u.)^3
     number of atoms/cell      =           14
     number of atomic types    =            3
     number of electrons       =       120.00
     number of Kohn-Sham states=          140
     kinetic-energy cutoff     =      90.0000  Ry
     charge density cutoff     =     360.0000  Ry
     Exchange-correlation= PBE
                           (   1   4   3   4   0   0   0)
     Non magnetic calculation with spin-orbit


     celldm(1)=  16.827755  celldm(2)=   0.000000  celldm(3)=   0.000000
     celldm(4)=   0.000000  celldm(5)=   0.000000  celldm(6)=   0.000000

     crystal axes: (cart. coord. in units of alat)
               a(1) = (   1.000000   0.000000   0.000000 )  
               a(2) = (   0.000000   1.000000   0.000000 )  
               a(3) = (   0.000000   0.000000   2.470560 )  

     reciprocal axes: (cart. coord. in units 2 pi/alat)
               b(1) = (  1.000000  0.000000  0.000000 )  
               b(2) = (  0.000000  1.000000  0.000000 )  
               b(3) = (  0.000000  0.000000  0.404767 )  


     PseudoPot. # 1 for Pb read from file:
     ./pseudo/Pb_FR.upf
     MD5 check sum: 73abbbd201951038fc1bdacebad68d2f
     Pseudo is Norm-conserving + core correction, Zval = 14.0
     Generated using ONCVPSP code by D. R. Hamann
     Using radial grid of 1782 points, 10 beta functions with: 
                l(1) =   0
                l(2) =   0
                l(3) =   1
                l(4) =   1
                l(5) =   1
                l(6) =   1
                l(7) =   2
                l(8) =   2
                l(9) =   2
               l(10) =   2

     PseudoPot. # 2 for I  read from file:
     ./pseudo/I_FR.upf
     MD5 check sum: 301f7009ca0a2b18b0adf53dca02d42f
     Pseudo is Norm-conserving + core correction, Zval =  7.0
     Generated using ONCVPSP code by D. R. Hamann
     Using radial grid of 1210 points, 10 beta functions with: 
                l(1) =   0
                l(2) =   0
                l(3) =   1
                l(4) =   1
                l(5) =   1
                l(6) =   1
                l(7) =   2
                l(8) =   2
                l(9) =   2
               l(10) =   2

     PseudoPot. # 3 for Cs read from file:
     ./pseudo/Cs_FR.upf
     MD5 check sum: 0949d7fbeea01e664226101e754fa92a
     Pseudo is Norm-conserving + core correction, Zval =  9.0
     Generated using ONCVPSP code by D. R. Hamann
     Using radial grid of 2414 points, 14 beta functions with: 
                l(1) =   0
                l(2) =   0
                l(3) =   1
                l(4) =   1
                l(5) =   1
                l(6) =   1
                l(7) =   2
                l(8) =   2
                l(9) =   2
               l(10) =   2
               l(11) =   3
               l(12) =   3
               l(13) =   3
               l(14) =   3

     atomic species   valence    mass     pseudopotential
     Pb               14.00   207.20000     Pb( 1.00)
     I                 7.00   126.90000     I ( 1.00)
     Cs                9.00   132.90000     Cs( 1.00)

     16 Sym. Ops., with inversion, found



   Cartesian axes

     site n.     atom                  positions (alat units)
         1        Pb     tau(   1) = (   0.0000000   0.0000000   1.2352799  )
         2        Pb     tau(   2) = (   0.5000000   0.5000000   1.2352799  )
         3        I      tau(   3) = (   0.2500000   0.2500000   1.2352799  )
         4        I      tau(   4) = (   0.7500000   0.7500000   1.2352799  )
         5        I      tau(   5) = (   0.2500000   0.7500000   1.2352799  )
         6        I      tau(   6) = (   0.7500000   0.2500000   1.2352799  )
         7        I      tau(   7) = (   0.0000000   0.0000000   1.5917355  )
         8        I      tau(   8) = (   0.0000000   0.0000000   0.8788242  )
         9        I      tau(   9) = (   0.5000000   0.5000000   1.5917355  )
        10        I      tau(  10) = (   0.5000000   0.5000000   0.8788242  )
        11        Cs     tau(  11) = (   0.5000000   0.0000000   1.5319124  )
        12        Cs     tau(  12) = (   0.0000000   0.5000000   1.5318963  )
        13        Cs     tau(  13) = (   0.5000000   0.0000000   0.9386473  )
        14        Cs     tau(  14) = (   0.0000000   0.5000000   0.9386634  )

     number of k points=    21
                       cart. coord. in units 2pi/alat
        k(    1) = (   0.5000000   0.5000000   0.0000000), wk =   0.0476190
        k(    2) = (   0.4500000   0.4500000   0.0000000), wk =   0.0476190
        k(    3) = (   0.4000000   0.4000000   0.0000000), wk =   0.0476190
        k(    4) = (   0.3500000   0.3500000   0.0000000), wk =   0.0476190
        k(    5) = (   0.3000000   0.3000000   0.0000000), wk =   0.0476190
        k(    6) = (   0.2500000   0.2500000   0.0000000), wk =   0.0476190
        k(    7) = (   0.2000000   0.2000000   0.0000000), wk =   0.0476190
        k(    8) = (   0.1500000   0.1500000   0.0000000), wk =   0.0476190
        k(    9) = (   0.1000000   0.1000000   0.0000000), wk =   0.0476190
        k(   10) = (   0.0500000   0.0500000   0.0000000), wk =   0.0476190
        k(   11) = (   0.0000000   0.0000000   0.0000000), wk =   0.0476190
        k(   12) = (   0.0500000   0.0000000   0.0000000), wk =   0.0476190
        k(   13) = (   0.1000000   0.0000000   0.0000000), wk =   0.0476190
        k(   14) = (   0.1500000   0.0000000   0.0000000), wk =   0.0476190
        k(   15) = (   0.2000000   0.0000000   0.0000000), wk =   0.0476190
        k(   16) = (   0.2500000   0.0000000   0.0000000), wk =   0.0476190
        k(   17) = (   0.3000000   0.0000000   0.0000000), wk =   0.0476190
        k(   18) = (   0.3500000   0.0000000   0.0000000), wk =   0.0476190
        k(   19) = (   0.4000000   0.0000000   0.0000000), wk =   0.0476190
        k(   20) = (   0.4500000   0.0000000   0.0000000), wk =   0.0476190
        k(   21) = (   0.5000000   0.0000000   0.0000000), wk =   0.0476190

     Dense  grid:  1358007 G-vectors     FFT dimensions: ( 108, 108, 256)

     Estimated max dynamical RAM per process >     647.43 MB

     Estimated total dynamical RAM >       6.32 GB
 ----2D----2D----2D----2D----2D----2D----2D----2D----2D----2D----2D----2D
  The code is running with the 2D cutoff
  Please refer to:
  Sohier, T., Calandra, M., & Mauri, F. (2017), 
  Density functional perturbation theory for gated two-dimensional heterostructures:
  Theoretical developments and application to flexural phonons in graphene.
  Physical Review B, 96(7), 75448. https://doi.org/10.1103/PhysRevB.96.075448
 ----2D----2D----2D----2D----2D----2D----2D----2D----2D----2D----2D----2D

     The potential is recalculated from file :
     /local/data/public/wd324/QEout/CsPbI_0.0_0.0.save/charge-density

     Starting wfcs are  140 randomized atomic wfcs

     Band Structure Calculation
     Davidson diagonalization with overlap
     c_bands:  3 eigenvalues not converged
     c_bands:  1 eigenvalues not converged
     c_bands:  1 eigenvalues not converged
     c_bands:  1 eigenvalues not converged
     c_bands:  2 eigenvalues not converged

     ethr =  8.33E-12,  avg # of iterations = 98.8

     total cpu time spent up to now is     6909.4 secs

     End of band structure calculation

          k = 0.5000 0.5000 0.0000 (169664 PWs)   bands (ev):

   -26.2583 -26.2583 -26.2581 -26.2581 -26.2565 -26.2565 -26.2563 -26.2563
   -22.4680 -22.4680 -22.4677 -22.4677 -22.4024 -22.4024 -22.4021 -22.4021
   -19.9385 -19.9385 -19.9383 -19.9383 -19.8505 -19.8505 -19.8503 -19.8503
   -19.8424 -19.8424 -19.8422 -19.8422 -16.7449 -16.7449 -16.7448 -16.7448
   -16.6747 -16.6747 -16.6747 -16.6747 -15.7633 -15.7633 -15.7633 -15.7633
   -15.7381 -15.7381 -15.7380 -15.7380 -14.1991 -14.1991 -14.1988 -14.1988
   -14.1879 -14.1879 -14.1877 -14.1877 -12.6112 -12.6112 -12.6109 -12.6109
   -12.5806 -12.5806 -12.5804 -12.5804 -12.5451 -12.5451 -12.5449 -12.5449
   -12.5394 -12.5394 -12.5391 -12.5391 -12.1363 -12.1363 -12.1361 -12.1361
    -8.3258  -8.3258  -8.3256  -8.3256  -7.2928  -7.2928  -7.2928  -7.2928
    -7.1582  -7.1582  -7.1582  -7.1582  -6.8712  -6.8712  -6.8710  -6.8710
    -6.5516  -6.5516  -6.5516  -6.5516  -6.1757  -6.1757  -6.1757  -6.1757
    -6.1187  -6.1187  -6.1187  -6.1187  -5.8396  -5.8396  -5.8395  -5.8395
    -5.7694  -5.7694  -5.7693  -5.7693  -5.4714  -5.4714  -5.4714  -5.4714
    -5.3876  -5.3876  -5.3876  -5.3876  -4.9781  -4.9781  -4.9781  -4.9781
    -2.8587  -2.8587  -2.8583  -2.8583  -1.0909  -1.0909  -1.0908  -1.0908
    -0.4161  -0.4161  -0.4161  -0.4161  -0.1816  -0.1816  -0.1812  -0.1812
    -0.1097  -0.1097  -0.1093  -0.1093

          k = 0.4500 0.4500 0.0000 (169678 PWs)   bands (ev):

   -26.2583 -26.2583 -26.2581 -26.2581 -26.2565 -26.2565 -26.2563 -26.2563
   -22.4680 -22.4680 -22.4677 -22.4677 -22.4024 -22.4024 -22.4021 -22.4021
   -19.9387 -19.9387 -19.9380 -19.9380 -19.8506 -19.8506 -19.8502 -19.8502
   -19.8424 -19.8424 -19.8422 -19.8422 -16.7695 -16.7695 -16.7433 -16.7433
   -16.6747 -16.6747 -16.6493 -16.6493 -15.7632 -15.7632 -15.7631 -15.7631
   -15.7395 -15.7395 -15.7375 -15.7375 -14.1996 -14.1996 -14.1988 -14.1988
   -14.1881 -14.1881 -14.1875 -14.1875 -12.6121 -12.6121 -12.6108 -12.6108
   -12.5807 -12.5807 -12.5802 -12.5802 -12.5457 -12.5457 -12.5449 -12.5449
   -12.5396 -12.5396 -12.5392 -12.5392 -12.1542 -12.1542 -12.1249 -12.1249
    -8.3292  -8.3292  -8.2861  -8.2861  -7.3078  -7.3078  -7.2891  -7.2891
    -7.1617  -7.1617  -7.1546  -7.1546  -6.8757  -6.8757  -6.8752  -6.8752
    -6.5460  -6.5460  -6.5368  -6.5368  -6.1995  -6.1995  -6.1785  -6.1785
    -6.1239  -6.1239  -6.0988  -6.0988  -5.8793  -5.8793  -5.8418  -5.8418
    -5.7650  -5.7650  -5.7594  -5.7594  -5.4768  -5.4768  -5.4675  -5.4675
    -5.3865  -5.3865  -5.3809  -5.3809  -4.9976  -4.9976  -4.9761  -4.9761
    -2.8666  -2.8666  -2.7686  -2.7686  -1.1041  -1.1041  -1.0818  -1.0818
    -0.4631  -0.4631  -0.4126  -0.4126  -0.2158  -0.2158  -0.1843  -0.1843
    -0.1482  -0.1482  -0.1159  -0.1159

          k = 0.4000 0.4000 0.0000 (169666 PWs)   bands (ev):

   -26.2584 -26.2584 -26.2581 -26.2581 -26.2565 -26.2565 -26.2563 -26.2563
   -22.4681 -22.4681 -22.4676 -22.4676 -22.4024 -22.4024 -22.4021 -22.4021
   -19.9394 -19.9394 -19.9370 -19.9370 -19.8510 -19.8510 -19.8500 -19.8500
   -19.8425 -19.8425 -19.8422 -19.8422 -16.8107 -16.8107 -16.7389 -16.7389
   -16.6747 -16.6747 -16.6060 -16.6060 -15.7630 -15.7630 -15.7624 -15.7624
   -15.7438 -15.7438 -15.7358 -15.7358 -14.2012 -14.2012 -14.1986 -14.1986
   -14.1887 -14.1887 -14.1870 -14.1870 -12.6147 -12.6147 -12.6100 -12.6100
   -12.5813 -12.5813 -12.5795 -12.5795 -12.5476 -12.5476 -12.5447 -12.5447
   -12.5407 -12.5407 -12.5392 -12.5392 -12.2047 -12.2047 -12.0915 -12.0915
    -8.3393  -8.3393  -8.1722  -8.1722  -7.3412  -7.3412  -7.2781  -7.2781
    -7.1707  -7.1707  -7.1701  -7.1701  -6.8830  -6.8830  -6.8808  -6.8808
    -6.5308  -6.5308  -6.4993  -6.4993  -6.2406  -6.2406  -6.1950  -6.1950
    -6.1383  -6.1383  -6.0677  -6.0677  -5.9569  -5.9569  -5.8480  -5.8480
    -5.7521  -5.7521  -5.7444  -5.7444  -5.4891  -5.4891  -5.4576  -5.4576
    -5.3839  -5.3839  -5.3651  -5.3651  -5.0395  -5.0395  -4.9700  -4.9700
    -2.8909  -2.8909  -2.5309  -2.5309  -1.1427  -1.1427  -1.0532  -1.0532
    -0.5864  -0.5864  -0.4012  -0.4012  -0.3072  -0.3072  -0.2085  -0.2085
    -0.2036  -0.2036  -0.1502  -0.1502

          k = 0.3500 0.3500 0.0000 (169702 PWs)   bands (ev):

   -26.2584 -26.2584 -26.2581 -26.2581 -26.2565 -26.2565 -26.2563 -26.2563
   -22.4684 -22.4684 -22.4673 -22.4673 -22.4025 -22.4025 -22.4021 -22.4021
   -19.9406 -19.9406 -19.9355 -19.9355 -19.8516 -19.8516 -19.8495 -19.8495
   -19.8425 -19.8425 -19.8422 -19.8422 -16.8518 -16.8518 -16.7320 -16.7320
   -16.6748 -16.6748 -16.5615 -16.5615 -15.7627 -15.7627 -15.7614 -15.7614
   -15.7507 -15.7507 -15.7331 -15.7331 -14.2036 -14.2036 -14.1982 -14.1982
   -14.1897 -14.1897 -14.1863 -14.1863 -12.6186 -12.6186 -12.6086 -12.6086
   -12.5822 -12.5822 -12.5786 -12.5786 -12.5505 -12.5505 -12.5444 -12.5444
   -12.5425 -12.5425 -12.5394 -12.5394 -12.2791 -12.2791 -12.0372 -12.0372
    -8.3546  -8.3546  -7.9986  -7.9986  -7.3793  -7.3793  -7.2606  -7.2606
    -7.2533  -7.2533  -7.1793  -7.1793  -6.8869  -6.8869  -6.8663  -6.8663
    -6.5104  -6.5104  -6.4551  -6.4551  -6.2798  -6.2798  -6.2445  -6.2445
    -6.1489  -6.1489  -6.0391  -6.0391  -6.0141  -6.0141  -5.8574  -5.8574
    -5.7310  -5.7310  -5.7269  -5.7269  -5.5032  -5.5032  -5.4437  -5.4437
    -5.3809  -5.3809  -5.3460  -5.3460  -5.0803  -5.0803  -4.9596  -4.9596
    -2.9320  -2.9320  -2.2129  -2.2129  -1.2040  -1.2040  -1.0014  -1.0014
    -0.7506  -0.7506  -0.4067  -0.4067  -0.3926  -0.3926  -0.3474  -0.3474
    -0.2827  -0.2827  -0.2276  -0.2276

          k = 0.3000 0.3000 0.0000 (169774 PWs)   bands (ev):

   -26.2584 -26.2584 -26.2580 -26.2580 -26.2566 -26.2566 -26.2562 -26.2562
   -22.4687 -22.4687 -22.4670 -22.4670 -22.4026 -22.4026 -22.4020 -22.4020
   -19.9421 -19.9421 -19.9335 -19.9335 -19.8525 -19.8525 -19.8489 -19.8489
   -19.8426 -19.8426 -19.8423 -19.8423 -16.8898 -16.8898 -16.7229 -16.7229
   -16.6748 -16.6748 -16.5197 -16.5197 -15.7623 -15.7623 -15.7607 -15.7607
   -15.7592 -15.7592 -15.7296 -15.7296 -14.2063 -14.2063 -14.1978 -14.1978
   -14.1910 -14.1910 -14.1857 -14.1857 -12.6231 -12.6231 -12.6067 -12.6067
   -12.5833 -12.5833 -12.5779 -12.5779 -12.5542 -12.5542 -12.5454 -12.5454
   -12.5436 -12.5436 -12.5400 -12.5400 -12.3666 -12.3666 -11.9646 -11.9646
    -8.3734  -8.3734  -7.7922  -7.7922  -7.4240  -7.4240  -7.4118  -7.4118
    -7.2336  -7.2336  -7.1762  -7.1762  -6.8839  -6.8839  -6.8292  -6.8292
    -6.4919  -6.4919  -6.4308  -6.4308  -6.2979  -6.2979  -6.2958  -6.2958
    -6.1517  -6.1517  -6.0392  -6.0392  -6.0149  -6.0149  -5.8691  -5.8691
    -5.7051  -5.7051  -5.7017  -5.7017  -5.5165  -5.5165  -5.4265  -5.4265
    -5.3793  -5.3793  -5.3269  -5.3269  -5.1127  -5.1127  -4.9442  -4.9442
    -2.9902  -2.9902  -1.8876  -1.8876  -1.2906  -1.2906  -0.9793  -0.9793
    -0.8700  -0.8700  -0.6927  -0.6927  -0.4786  -0.4786  -0.3656  -0.3656
    -0.3383  -0.3383  -0.2860  -0.2860

          k = 0.2500 0.2500 0.0000 (169778 PWs)   bands (ev):

   -26.2584 -26.2584 -26.2580 -26.2580 -26.2566 -26.2566 -26.2562 -26.2562
   -22.4691 -22.4691 -22.4666 -22.4666 -22.4027 -22.4027 -22.4018 -22.4018
   -19.9439 -19.9439 -19.9314 -19.9314 -19.8534 -19.8534 -19.8482 -19.8482
   -19.8427 -19.8427 -19.8423 -19.8423 -16.9232 -16.9232 -16.7126 -16.7126
   -16.6747 -16.6747 -16.4822 -16.4822 -15.7702 -15.7702 -15.7619 -15.7619
   -15.7587 -15.7587 -15.7256 -15.7256 -14.2092 -14.2092 -14.1975 -14.1975
   -14.1924 -14.1924 -14.1852 -14.1852 -12.6277 -12.6277 -12.6043 -12.6043
   -12.5846 -12.5846 -12.5775 -12.5775 -12.5583 -12.5583 -12.5485 -12.5485
   -12.5432 -12.5432 -12.5418 -12.5418 -12.4555 -12.4555 -11.8778 -11.8778
    -8.3935  -8.3935  -7.6430  -7.6430  -7.6066  -7.6066  -7.4485  -7.4485
    -7.1778  -7.1778  -7.1436  -7.1436  -6.8738  -6.8738  -6.7829  -6.7829
    -6.4805  -6.4805  -6.4478  -6.4478  -6.3188  -6.3188  -6.2704  -6.2704
    -6.1525  -6.1525  -6.0488  -6.0488  -5.9966  -5.9966  -5.8813  -5.8813
    -5.6790  -5.6790  -5.6652  -5.6652  -5.5276  -5.5276  -5.4070  -5.4070
    -5.3800  -5.3800  -5.3096  -5.3096  -5.1377  -5.1377  -4.9225  -4.9225
    -3.0668  -3.0668  -1.6228  -1.6228  -1.4346  -1.4346  -1.1389  -1.1389
    -1.0173  -1.0173  -0.8098  -0.8098  -0.4893  -0.4893  -0.4130  -0.4130
    -0.3551  -0.3551  -0.2889  -0.2889

          k = 0.2000 0.2000 0.0000 (169780 PWs)   bands (ev):

   -26.2585 -26.2585 -26.2580 -26.2580 -26.2566 -26.2566 -26.2562 -26.2562
   -22.4694 -22.4694 -22.4662 -22.4662 -22.4029 -22.4029 -22.4017 -22.4017
   -19.9456 -19.9456 -19.9293 -19.9293 -19.8543 -19.8543 -19.8475 -19.8475
   -19.8427 -19.8427 -19.8423 -19.8423 -16.9513 -16.9513 -16.7020 -16.7020
   -16.6746 -16.6746 -16.4503 -16.4503 -15.7811 -15.7811 -15.7615 -15.7615
   -15.7573 -15.7573 -15.7213 -15.7213 -14.2120 -14.2120 -14.1974 -14.1974
   -14.1934 -14.1934 -14.1847 -14.1847 -12.6321 -12.6321 -12.6016 -12.6016
   -12.5859 -12.5859 -12.5791 -12.5791 -12.5631 -12.5631 -12.5555 -12.5555
   -12.5520 -12.5520 -12.5427 -12.5427 -12.5243 -12.5243 -11.7830 -11.7830
    -8.4130  -8.4130  -7.8833  -7.8833  -7.5097  -7.5097  -7.4765  -7.4765
    -7.1301  -7.1301  -7.0113  -7.0113  -6.8479  -6.8479  -6.7388  -6.7388
    -6.4787  -6.4787  -6.4720  -6.4720  -6.3125  -6.3125  -6.2282  -6.2282
    -6.1537  -6.1537  -6.0509  -6.0509  -5.9873  -5.9873  -5.8902  -5.8902
    -5.6492  -5.6492  -5.6261  -5.6261  -5.5330  -5.5330  -5.3944  -5.3944
    -5.3766  -5.3766  -5.2948  -5.2948  -5.1578  -5.1578  -4.8914  -4.8914
    -3.1647  -3.1647  -1.7054  -1.7054  -1.4494  -1.4494  -1.3034  -1.3034
    -1.2154  -1.2154  -0.8081  -0.8081  -0.5517  -0.5517  -0.4287  -0.4287
    -0.2702  -0.2702  -0.2408  -0.2408

          k = 0.1500 0.1500 0.0000 (169806 PWs)   bands (ev):

   -26.2585 -26.2585 -26.2579 -26.2579 -26.2567 -26.2567 -26.2562 -26.2562
   -22.4698 -22.4698 -22.4658 -22.4658 -22.4030 -22.4030 -22.4016 -22.4016
   -19.9473 -19.9473 -19.9274 -19.9274 -19.8551 -19.8551 -19.8468 -19.8468
   -19.8427 -19.8427 -19.8423 -19.8423 -16.9735 -16.9735 -16.6923 -16.6923
   -16.6741 -16.6741 -16.4248 -16.4248 -15.7914 -15.7914 -15.7611 -15.7611
   -15.7560 -15.7560 -15.7173 -15.7173 -14.2144 -14.2144 -14.1979 -14.1979
   -14.1939 -14.1939 -14.1844 -14.1844 -12.6358 -12.6358 -12.6219 -12.6219
   -12.5988 -12.5988 -12.5871 -12.5871 -12.5746 -12.5746 -12.5655 -12.5655
   -12.5555 -12.5555 -12.5422 -12.5422 -12.5359 -12.5359 -11.6892 -11.6892
    -8.4300  -8.4300  -8.1082  -8.1082  -7.4988  -7.4988  -7.4842  -7.4842
    -7.0872  -7.0872  -6.9148  -6.9148  -6.7405  -6.7405  -6.7035  -6.7035
    -6.4822  -6.4822  -6.4594  -6.4594  -6.2965  -6.2965  -6.1881  -6.1881
    -6.1565  -6.1565  -6.0485  -6.0485  -5.9923  -5.9923  -5.8898  -5.8898
    -5.6169  -5.6169  -5.6009  -5.6009  -5.5198  -5.5198  -5.4029  -5.4029
    -5.3577  -5.3577  -5.2832  -5.2832  -5.1740  -5.1740  -4.8457  -4.8457
    -3.2896  -3.2896  -2.0346  -2.0346  -1.4469  -1.4469  -1.3432  -1.3432
    -1.3075  -1.3075  -0.8417  -0.8417  -0.6214  -0.6214  -0.4979  -0.4979
    -0.3675  -0.3675  -0.1648  -0.1648

          k = 0.1000 0.1000 0.0000 (169808 PWs)   bands (ev):

   -26.2586 -26.2586 -26.2579 -26.2579 -26.2567 -26.2567 -26.2561 -26.2561
   -22.4700 -22.4700 -22.4655 -22.4655 -22.4031 -22.4031 -22.4015 -22.4015
   -19.9486 -19.9486 -19.9260 -19.9260 -19.8557 -19.8557 -19.8462 -19.8462
   -19.8428 -19.8428 -19.8423 -19.8423 -16.9896 -16.9896 -16.6851 -16.6851
   -16.6731 -16.6731 -16.4063 -16.4063 -15.8000 -15.8000 -15.7608 -15.7608
   -15.7550 -15.7550 -15.7139 -15.7139 -14.2163 -14.2163 -14.1987 -14.1987
   -14.1939 -14.1939 -14.1841 -14.1841 -12.6745 -12.6745 -12.6386 -12.6386
   -12.5963 -12.5963 -12.5882 -12.5882 -12.5751 -12.5751 -12.5685 -12.5685
   -12.5585 -12.5585 -12.5418 -12.5418 -12.5377 -12.5377 -11.6076 -11.6076
    -8.4433  -8.4433  -8.2913  -8.2913  -7.5150  -7.5150  -7.4827  -7.4827
    -7.0420  -7.0420  -6.9069  -6.9069  -6.6797  -6.6797  -6.6572  -6.6572
    -6.4430  -6.4430  -6.3810  -6.3810  -6.2816  -6.2816  -6.1605  -6.1605
    -6.1562  -6.1562  -6.0438  -6.0438  -6.0141  -6.0141  -5.8786  -5.8786
    -5.6010  -5.6010  -5.5843  -5.5843  -5.4829  -5.4829  -5.4197  -5.4197
    -5.3388  -5.3388  -5.2748  -5.2748  -5.1861  -5.1861  -4.7800  -4.7800
    -3.4447  -3.4447  -2.3106  -2.3106  -1.5531  -1.5531  -1.3580  -1.3580
    -1.2837  -1.2837  -0.8732  -0.8732  -0.6765  -0.6765  -0.5542  -0.5542
    -0.4428  -0.4428  -0.2172  -0.2172

          k = 0.0500 0.0500 0.0000 (169788 PWs)   bands (ev):

   -26.2586 -26.2586 -26.2579 -26.2579 -26.2567 -26.2567 -26.2561 -26.2561
   -22.4702 -22.4702 -22.4654 -22.4654 -22.4031 -22.4031 -22.4015 -22.4015
   -19.9494 -19.9494 -19.9251 -19.9251 -19.8561 -19.8561 -19.8459 -19.8459
   -19.8428 -19.8428 -19.8423 -19.8423 -16.9994 -16.9994 -16.6814 -16.6814
   -16.6713 -16.6713 -16.3951 -16.3951 -15.8057 -15.8057 -15.7606 -15.7606
   -15.7544 -15.7544 -15.7117 -15.7117 -14.2175 -14.2175 -14.1993 -14.1993
   -14.1937 -14.1937 -14.1839 -14.1839 -12.7079 -12.7079 -12.6404 -12.6404
   -12.5943 -12.5943 -12.5891 -12.5891 -12.5750 -12.5750 -12.5705 -12.5705
   -12.5606 -12.5606 -12.5416 -12.5416 -12.5383 -12.5383 -11.5512 -11.5512
    -8.4520  -8.4520  -8.4110  -8.4110  -7.5248  -7.5248  -7.4859  -7.4859
    -6.9973  -6.9973  -6.9233  -6.9233  -6.6667  -6.6667  -6.6515  -6.6515
    -6.4287  -6.4287  -6.2719  -6.2719  -6.2301  -6.2301  -6.1641  -6.1641
    -6.1355  -6.1355  -6.0538  -6.0538  -6.0395  -6.0395  -5.8626  -5.8626
    -5.6105  -5.6105  -5.5560  -5.5560  -5.4470  -5.4470  -5.4386  -5.4386
    -5.3256  -5.3256  -5.2696  -5.2696  -5.1938  -5.1938  -4.7026  -4.7026
    -3.6021  -3.6021  -2.4816  -2.4816  -1.6199  -1.6199  -1.3854  -1.3854
    -1.2518  -1.2518  -0.8929  -0.8929  -0.7118  -0.7118  -0.5906  -0.5906
    -0.4888  -0.4888  -0.2690  -0.2690

          k = 0.0000 0.0000 0.0000 (169885 PWs)   bands (ev):

   -26.2586 -26.2586 -26.2579 -26.2579 -26.2567 -26.2567 -26.2561 -26.2561
   -22.4703 -22.4703 -22.4653 -22.4653 -22.4032 -22.4032 -22.4015 -22.4015
   -19.9497 -19.9497 -19.9248 -19.9248 -19.8563 -19.8563 -19.8458 -19.8458
   -19.8428 -19.8428 -19.8423 -19.8423 -17.0026 -17.0026 -16.6804 -16.6804
   -16.6704 -16.6704 -16.3914 -16.3914 -15.8076 -15.8076 -15.7605 -15.7605
   -15.7542 -15.7542 -15.7110 -15.7110 -14.2179 -14.2179 -14.1996 -14.1996
   -14.1937 -14.1937 -14.1839 -14.1839 -12.7193 -12.7193 -12.6411 -12.6411
   -12.5935 -12.5935 -12.5895 -12.5895 -12.5749 -12.5749 -12.5712 -12.5712
   -12.5613 -12.5613 -12.5415 -12.5415 -12.5385 -12.5385 -11.5309 -11.5309
    -8.4590  -8.4590  -8.4488  -8.4488  -7.5281  -7.5281  -7.4874  -7.4874
    -6.9635  -6.9635  -6.9478  -6.9478  -6.6627  -6.6627  -6.6538  -6.6538
    -6.4230  -6.4230  -6.2687  -6.2687  -6.1657  -6.1657  -6.1284  -6.1284
    -6.1252  -6.1252  -6.1154  -6.1154  -6.0377  -6.0377  -5.8543  -5.8543
    -5.6157  -5.6157  -5.5431  -5.5431  -5.4484  -5.4484  -5.4325  -5.4325
    -5.3208  -5.3208  -5.2679  -5.2679  -5.1965  -5.1965  -4.6620  -4.6620
    -3.6760  -3.6760  -2.5376  -2.5376  -1.6426  -1.6426  -1.3942  -1.3942
    -1.2418  -1.2418  -0.8994  -0.8994  -0.7239  -0.7239  -0.6032  -0.6032
    -0.5042  -0.5042  -0.2869  -0.2869

          k = 0.0500 0.0000 0.0000 (169777 PWs)   bands (ev):

   -26.2586 -26.2586 -26.2579 -26.2579 -26.2567 -26.2567 -26.2561 -26.2561
   -22.4702 -22.4702 -22.4653 -22.4653 -22.4031 -22.4031 -22.4015 -22.4015
   -19.9496 -19.9496 -19.9249 -19.9249 -19.8562 -19.8562 -19.8458 -19.8458
   -19.8428 -19.8428 -19.8423 -19.8423 -17.0010 -17.0010 -16.6813 -16.6813
   -16.6705 -16.6705 -16.3933 -16.3933 -15.8066 -15.8066 -15.7606 -15.7606
   -15.7543 -15.7543 -15.7114 -15.7114 -14.2177 -14.2177 -14.1994 -14.1994
   -14.1937 -14.1937 -14.1839 -14.1839 -12.7136 -12.7136 -12.6407 -12.6407
   -12.5939 -12.5939 -12.5893 -12.5893 -12.5750 -12.5750 -12.5708 -12.5708
   -12.5609 -12.5609 -12.5416 -12.5416 -12.5384 -12.5384 -11.5412 -11.5412
    -8.4491  -8.4491  -8.4361  -8.4361  -7.5265  -7.5265  -7.4866  -7.4866
    -6.9853  -6.9853  -6.9307  -6.9307  -6.6647  -6.6647  -6.6524  -6.6524
    -6.4259  -6.4259  -6.2702  -6.2702  -6.1918  -6.1918  -6.1650  -6.1650
    -6.1303  -6.1303  -6.0727  -6.0727  -6.0385  -6.0385  -5.8582  -5.8582
    -5.6131  -5.6131  -5.5499  -5.5499  -5.4431  -5.4431  -5.4399  -5.4399
    -5.3232  -5.3232  -5.2687  -5.2687  -5.1952  -5.1952  -4.6842  -4.6842
    -3.6362  -3.6362  -2.5101  -2.5101  -1.6312  -1.6312  -1.3898  -1.3898
    -1.2467  -1.2467  -0.8962  -0.8962  -0.7178  -0.7178  -0.5970  -0.5970
    -0.4965  -0.4965  -0.2779  -0.2779

          k = 0.1000 0.0000 0.0000 (169749 PWs)   bands (ev):

   -26.2586 -26.2586 -26.2579 -26.2579 -26.2567 -26.2567 -26.2561 -26.2561
   -22.4702 -22.4702 -22.4654 -22.4654 -22.4031 -22.4031 -22.4015 -22.4015
   -19.9491 -19.9491 -19.9254 -19.9254 -19.8560 -19.8560 -19.8460 -19.8460
   -19.8428 -19.8428 -19.8423 -19.8423 -16.9961 -16.9961 -16.6870 -16.6870
   -16.6676 -16.6676 -16.3988 -16.3988 -15.8037 -15.8037 -15.7607 -15.7607
   -15.7546 -15.7546 -15.7125 -15.7125 -14.2171 -14.2171 -14.1991 -14.1991
   -14.1938 -14.1938 -14.1840 -14.1840 -12.6966 -12.6966 -12.6398 -12.6398
   -12.5951 -12.5951 -12.5887 -12.5887 -12.5751 -12.5751 -12.5698 -12.5698
   -12.5598 -12.5598 -12.5417 -12.5417 -12.5381 -12.5381 -11.5713 -11.5713
    -8.4233  -8.4233  -8.3951  -8.3951  -7.5215  -7.5215  -7.4845  -7.4845
    -7.0172  -7.0172  -6.9122  -6.9122  -6.6708  -6.6708  -6.6502  -6.6502
    -6.4344  -6.4344  -6.2809  -6.2809  -6.2741  -6.2741  -6.1647  -6.1647
    -6.1370  -6.1370  -6.0562  -6.0562  -6.0399  -6.0399  -5.8626  -5.8626
    -5.6093  -5.6093  -5.5668  -5.5668  -5.4597  -5.4597  -5.4307  -5.4307
    -5.3300  -5.3300  -5.2712  -5.2712  -5.1913  -5.1913  -4.7400  -4.7400
    -3.5276  -3.5276  -2.4299  -2.4299  -1.5976  -1.5976  -1.3768  -1.3768
    -1.2621  -1.2621  -0.8865  -0.8865  -0.7004  -0.7004  -0.5793  -0.5793
    -0.4735  -0.4735  -0.2516  -0.2516

          k = 0.1500 0.0000 0.0000 (169769 PWs)   bands (ev):

   -26.2586 -26.2586 -26.2579 -26.2579 -26.2567 -26.2567 -26.2561 -26.2561
   -22.4700 -22.4700 -22.4656 -22.4656 -22.4031 -22.4031 -22.4015 -22.4015
   -19.9484 -19.9484 -19.9262 -19.9262 -19.8557 -19.8557 -19.8463 -19.8463
   -19.8428 -19.8428 -19.8423 -19.8423 -16.9881 -16.9881 -16.6986 -16.6986
   -16.6602 -16.6602 -16.4079 -16.4079 -15.7991 -15.7991 -15.7608 -15.7608
   -15.7551 -15.7551 -15.7144 -15.7144 -14.2161 -14.2161 -14.1987 -14.1987
   -14.1938 -14.1938 -14.1841 -14.1841 -12.6688 -12.6688 -12.6381 -12.6381
   -12.5968 -12.5968 -12.5879 -12.5879 -12.5751 -12.5751 -12.5682 -12.5682
   -12.5581 -12.5581 -12.5420 -12.5420 -12.5376 -12.5376 -11.6193 -11.6193
    -8.3825  -8.3825  -8.3272  -8.3272  -7.5133  -7.5133  -7.4823  -7.4823
    -7.0530  -7.0530  -6.8977  -6.8977  -6.6813  -6.6813  -6.6545  -6.6545
    -6.4474  -6.4474  -6.3773  -6.3773  -6.2786  -6.2786  -6.1685  -6.1685
    -6.1515  -6.1515  -6.0724  -6.0724  -6.0390  -6.0390  -5.8565  -5.8565
    -5.6140  -5.6140  -5.5885  -5.5885  -5.4835  -5.4835  -5.4163  -5.4163
    -5.3402  -5.3402  -5.2750  -5.2750  -5.1853  -5.1853  -4.8089  -4.8089
    -3.3714  -3.3714  -2.3036  -2.3036  -1.5432  -1.5432  -1.3551  -1.3551
    -1.2892  -1.2892  -0.8711  -0.8711  -0.6734  -0.6734  -0.5537  -0.5537
    -0.4354  -0.4354  -0.2114  -0.2114

          k = 0.2000 0.0000 0.0000 (169749 PWs)   bands (ev):

   -26.2585 -26.2585 -26.2579 -26.2579 -26.2567 -26.2567 -26.2561 -26.2561
   -22.4698 -22.4698 -22.4658 -22.4658 -22.4030 -22.4030 -22.4016 -22.4016
   -19.9474 -19.9474 -19.9272 -19.9272 -19.8552 -19.8552 -19.8467 -19.8467
   -19.8428 -19.8428 -19.8423 -19.8423 -16.9770 -16.9770 -16.7148 -16.7148
   -16.6495 -16.6495 -16.4202 -16.4202 -15.7931 -15.7931 -15.7609 -15.7609
   -15.7558 -15.7558 -15.7171 -15.7171 -14.2148 -14.2148 -14.1983 -14.1983
   -14.1938 -14.1938 -14.1844 -14.1844 -12.6389 -12.6389 -12.6280 -12.6280
   -12.5990 -12.5990 -12.5870 -12.5870 -12.5750 -12.5750 -12.5661 -12.5661
   -12.5559 -12.5559 -12.5424 -12.5424 -12.5366 -12.5366 -11.6824 -11.6824
    -8.3268  -8.3268  -8.2361  -8.2361  -7.5017  -7.5017  -7.4818  -7.4818
    -7.0918  -7.0918  -6.8872  -6.8872  -6.6965  -6.6965  -6.6865  -6.6865
    -6.4635  -6.4635  -6.4561  -6.4561  -6.2827  -6.2827  -6.1836  -6.1836
    -6.1790  -6.1790  -6.1037  -6.1037  -6.0332  -6.0332  -5.8414  -5.8414
    -5.6378  -5.6378  -5.6119  -5.6119  -5.4987  -5.4987  -5.4034  -5.4034
    -5.3516  -5.3516  -5.2799  -5.2799  -5.1776  -5.1776  -4.8759  -4.8759
    -3.1852  -3.1852  -2.1396  -2.1396  -1.4702  -1.4702  -1.3294  -1.3294
    -1.3247  -1.3247  -0.8514  -0.8514  -0.6391  -0.6391  -0.5255  -0.5255
    -0.3828  -0.3828  -0.1790  -0.1790

          k = 0.2500 0.0000 0.0000 (169771 PWs)   bands (ev):

   -26.2585 -26.2585 -26.2579 -26.2579 -26.2566 -26.2566 -26.2562 -26.2562
   -22.4696 -22.4696 -22.4660 -22.4660 -22.4029 -22.4029 -22.4017 -22.4017
   -19.9462 -19.9462 -19.9285 -19.9285 -19.8547 -19.8547 -19.8473 -19.8473
   -19.8428 -19.8428 -19.8424 -19.8424 -16.9630 -16.9630 -16.7346 -16.7346
   -16.6358 -16.6358 -16.4354 -16.4354 -15.7862 -15.7862 -15.7611 -15.7611
   -15.7566 -15.7566 -15.7205 -15.7205 -14.2132 -14.2132 -14.1983 -14.1983
   -14.1934 -14.1934 -14.1847 -14.1847 -12.6348 -12.6348 -12.6016 -12.6016
   -12.5869 -12.5869 -12.5860 -12.5860 -12.5717 -12.5717 -12.5632 -12.5632
   -12.5535 -12.5535 -12.5430 -12.5430 -12.5337 -12.5337 -11.7573 -11.7573
    -8.2567  -8.2567  -8.1258  -8.1258  -7.4868  -7.4868  -7.4864  -7.4864
    -7.1335  -7.1335  -6.8800  -6.8800  -6.7704  -6.7704  -6.7163  -6.7163
    -6.4885  -6.4885  -6.4809  -6.4809  -6.2866  -6.2866  -6.2425  -6.2425
    -6.1951  -6.1951  -6.1281  -6.1281  -6.0218  -6.0218  -5.8235  -5.8235
    -5.6796  -5.6796  -5.6353  -5.6353  -5.5014  -5.5014  -5.3964  -5.3964
    -5.3597  -5.3597  -5.2855  -5.2855  -5.1683  -5.1683  -4.9340  -4.9340
    -2.9809  -2.9809  -1.9463  -1.9463  -1.3860  -1.3860  -1.3799  -1.3799
    -1.2856  -1.2856  -0.8310  -0.8310  -0.5999  -0.5999  -0.5008  -0.5008
    -0.3164  -0.3164  -0.2544  -0.2544

          k = 0.3000 0.0000 0.0000 (169757 PWs)   bands (ev):

   -26.2585 -26.2585 -26.2580 -26.2580 -26.2566 -26.2566 -26.2562 -26.2562
   -22.4693 -22.4693 -22.4663 -22.4663 -22.4028 -22.4028 -22.4018 -22.4018
   -19.9447 -19.9447 -19.9300 -19.9300 -19.8540 -19.8540 -19.8479 -19.8479
   -19.8428 -19.8428 -19.8424 -19.8424 -16.9462 -16.9462 -16.7570 -16.7570
   -16.6196 -16.6196 -16.4531 -16.4531 -15.7786 -15.7786 -15.7612 -15.7612
   -15.7574 -15.7574 -15.7247 -15.7247 -14.2114 -14.2114 -14.1987 -14.1987
   -14.1926 -14.1926 -14.1851 -14.1851 -12.6319 -12.6319 -12.6045 -12.6045
   -12.5849 -12.5849 -12.5779 -12.5779 -12.5616 -12.5616 -12.5509 -12.5509
   -12.5456 -12.5456 -12.5438 -12.5438 -12.5091 -12.5091 -11.8409 -11.8409
    -8.1736  -8.1736  -8.0003  -8.0003  -7.5009  -7.5009  -7.4686  -7.4686
    -7.1785  -7.1785  -6.8903  -6.8903  -6.8746  -6.8746  -6.7401  -6.7401
    -6.4979  -6.4979  -6.4863  -6.4863  -6.3165  -6.3165  -6.2927  -6.2927
    -6.2119  -6.2119  -6.1457  -6.1457  -6.0058  -6.0058  -5.8064  -5.8064
    -5.7282  -5.7282  -5.6578  -5.6578  -5.4968  -5.4968  -5.4014  -5.4014
    -5.3577  -5.3577  -5.2917  -5.2917  -5.1576  -5.1576  -4.9816  -4.9816
    -2.7675  -2.7675  -1.7311  -1.7311  -1.4562  -1.4562  -1.2801  -1.2801
    -1.2375  -1.2375  -0.8154  -0.8154  -0.5579  -0.5579  -0.4852  -0.4852
    -0.3438  -0.3438  -0.2410  -0.2410

          k = 0.3500 0.0000 0.0000 (169763 PWs)   bands (ev):

   -26.2584 -26.2584 -26.2580 -26.2580 -26.2566 -26.2566 -26.2562 -26.2562
   -22.4689 -22.4689 -22.4667 -22.4667 -22.4027 -22.4027 -22.4019 -22.4019
   -19.9431 -19.9431 -19.9317 -19.9317 -19.8533 -19.8533 -19.8486 -19.8486
   -19.8428 -19.8428 -19.8424 -19.8424 -16.9270 -16.9270 -16.7813 -16.7813
   -16.6013 -16.6013 -16.4727 -16.4727 -15.7707 -15.7707 -15.7611 -15.7611
   -15.7582 -15.7582 -15.7295 -15.7295 -14.2095 -14.2095 -14.1996 -14.1996
   -14.1916 -14.1916 -14.1857 -14.1857 -12.6287 -12.6287 -12.6077 -12.6077
   -12.5837 -12.5837 -12.5779 -12.5779 -12.5586 -12.5586 -12.5484 -12.5484
   -12.5450 -12.5450 -12.5413 -12.5413 -12.4466 -12.4466 -11.9299 -11.9299
    -8.0791  -8.0791  -7.8637  -7.8637  -7.5315  -7.5315  -7.4470  -7.4470
    -7.2267  -7.2267  -7.0197  -7.0197  -6.8718  -6.8718  -6.7667  -6.7667
    -6.5127  -6.5127  -6.4710  -6.4710  -6.3881  -6.3881  -6.3060  -6.3060
    -6.2222  -6.2222  -6.1612  -6.1612  -5.9860  -5.9860  -5.7980  -5.7980
    -5.7685  -5.7685  -5.6790  -5.6790  -5.4891  -5.4891  -5.4141  -5.4141
    -5.3492  -5.3492  -5.2984  -5.2984  -5.1455  -5.1455  -5.0201  -5.0201
    -2.5520  -2.5520  -1.5471  -1.5471  -1.5007  -1.5007  -1.1800  -1.1800
    -1.1694  -1.1694  -0.8129  -0.8129  -0.5177  -0.5177  -0.4892  -0.4892
    -0.4343  -0.4343  -0.2969  -0.2969

          k = 0.4000 0.0000 0.0000 (169777 PWs)   bands (ev):

   -26.2584 -26.2584 -26.2581 -26.2581 -26.2566 -26.2566 -26.2563 -26.2563
   -22.4686 -22.4686 -22.4670 -22.4670 -22.4026 -22.4026 -22.4020 -22.4020
   -19.9413 -19.9413 -19.9335 -19.9335 -19.8526 -19.8526 -19.8493 -19.8493
   -19.8428 -19.8428 -19.8425 -19.8425 -16.9056 -16.9056 -16.8067 -16.8067
   -16.5813 -16.5813 -16.4937 -16.4937 -15.7629 -15.7629 -15.7610 -15.7610
   -15.7590 -15.7590 -15.7350 -15.7350 -14.2076 -14.2076 -14.2007 -14.2007
   -14.1904 -14.1904 -14.1864 -14.1864 -12.6253 -12.6253 -12.6111 -12.6111
   -12.5825 -12.5825 -12.5785 -12.5785 -12.5557 -12.5557 -12.5465 -12.5465
   -12.5461 -12.5461 -12.5408 -12.5408 -12.3724 -12.3724 -12.0217 -12.0217
    -7.9759  -7.9759  -7.7201  -7.7201  -7.5849  -7.5849  -7.4218  -7.4218
    -7.2760  -7.2760  -7.1521  -7.1521  -6.8671  -6.8671  -6.7941  -6.7941
    -6.5230  -6.5230  -6.4658  -6.4658  -6.4302  -6.4302  -6.3283  -6.3283
    -6.2224  -6.2224  -6.1761  -6.1761  -5.9627  -5.9627  -5.8299  -5.8299
    -5.7656  -5.7656  -5.6987  -5.6987  -5.4794  -5.4794  -5.4285  -5.4285
    -5.3395  -5.3395  -5.3055  -5.3055  -5.1318  -5.1318  -5.0512  -5.0512
    -2.3410  -2.3410  -1.6599  -1.6599  -1.2616  -1.2616  -1.1127  -1.1127
    -1.0525  -1.0525  -0.8348  -0.8348  -0.5699  -0.5699  -0.4965  -0.4965
    -0.4631  -0.4631  -0.3671  -0.3671

          k = 0.4500 0.0000 0.0000 (169788 PWs)   bands (ev):

   -26.2584 -26.2584 -26.2581 -26.2581 -26.2565 -26.2565 -26.2563 -26.2563
   -22.4682 -22.4682 -22.4674 -22.4674 -22.4025 -22.4025 -22.4021 -22.4021
   -19.9394 -19.9394 -19.9355 -19.9355 -19.8518 -19.8518 -19.8501 -19.8501
   -19.8428 -19.8428 -19.8425 -19.8425 -16.8824 -16.8824 -16.8324 -16.8324
   -16.5600 -16.5600 -16.5157 -16.5157 -15.7607 -15.7607 -15.7598 -15.7598
   -15.7551 -15.7551 -15.7411 -15.7411 -14.2057 -14.2057 -14.2022 -14.2022
   -14.1893 -14.1893 -14.1872 -14.1872 -12.6218 -12.6218 -12.6146 -12.6146
   -12.5814 -12.5814 -12.5793 -12.5793 -12.5530 -12.5530 -12.5483 -12.5483
   -12.5440 -12.5440 -12.5413 -12.5413 -12.2910 -12.2910 -12.1138 -12.1138
    -7.8678  -7.8678  -7.6632  -7.6632  -7.5740  -7.5740  -7.3927  -7.3927
    -7.3232  -7.3232  -7.2856  -7.2856  -6.8577  -6.8577  -6.8200  -6.8200
    -6.5262  -6.5262  -6.4978  -6.4978  -6.4126  -6.4126  -6.3559  -6.3559
    -6.2152  -6.2152  -6.1905  -6.1905  -5.9357  -5.9357  -5.8692  -5.8692
    -5.7506  -5.7506  -5.7171  -5.7171  -5.4685  -5.4685  -5.4428  -5.4428
    -5.3301  -5.3301  -5.3131  -5.3131  -5.1162  -5.1162  -5.0767  -5.0767
    -2.1410  -2.1410  -1.7968  -1.7968  -1.0473  -1.0473  -1.0099  -1.0099
    -0.9335  -0.9335  -0.8872  -0.8872  -0.6818  -0.6818  -0.5627  -0.5627
    -0.4668  -0.4668  -0.4301  -0.4301

          k = 0.5000 0.0000 0.0000 (169750 PWs)   bands (ev):

   -26.2584 -26.2584 -26.2581 -26.2581 -26.2565 -26.2565 -26.2563 -26.2563
   -22.4679 -22.4679 -22.4677 -22.4677 -22.4024 -22.4024 -22.4022 -22.4022
   -19.9376 -19.9376 -19.9373 -19.9373 -19.8511 -19.8511 -19.8508 -19.8508
   -19.8428 -19.8428 -19.8425 -19.8425 -16.8578 -16.8578 -16.8578 -16.8578
   -16.5380 -16.5380 -16.5379 -16.5379 -15.7603 -15.7603 -15.7603 -15.7603
   -15.7479 -15.7479 -15.7479 -15.7479 -14.2040 -14.2040 -14.2037 -14.2037
   -14.1883 -14.1883 -14.1881 -14.1881 -12.6184 -12.6184 -12.6181 -12.6181
   -12.5804 -12.5804 -12.5801 -12.5801 -12.5507 -12.5507 -12.5504 -12.5504
   -12.5425 -12.5425 -12.5423 -12.5423 -12.2043 -12.2043 -12.2041 -12.2041
    -7.7608  -7.7608  -7.7607  -7.7607  -7.4299  -7.4299  -7.4299  -7.4299
    -7.3585  -7.3585  -7.3584  -7.3584  -6.8419  -6.8419  -6.8418  -6.8418
    -6.5191  -6.5191  -6.5190  -6.5190  -6.3849  -6.3849  -6.3849  -6.3849
    -6.2040  -6.2040  -6.2039  -6.2039  -5.9046  -5.9046  -5.9046  -5.9046
    -5.7343  -5.7343  -5.7343  -5.7343  -5.4562  -5.4562  -5.4562  -5.4562
    -5.3213  -5.3213  -5.3213  -5.3213  -5.0981  -5.0981  -5.0980  -5.0980
    -1.9581  -1.9581  -1.9579  -1.9579  -0.9615  -0.9615  -0.9615  -0.9615
    -0.8334  -0.8334  -0.8334  -0.8334  -0.7448  -0.7448  -0.7445  -0.7445
    -0.4623  -0.4623  -0.4621  -0.4621

     highest occupied, lowest unoccupied level (ev):    -4.6620   -3.6760

     Writing all to output data dir /local/data/public/wd324/QEout/CsPbI_0.0_0.0.save/ :
     XML data file, pseudopotentials, collected wavefunctions

     init_run     :      1.65s CPU      1.78s WALL (       1 calls)
     electrons    :   6680.33s CPU   6907.29s WALL (       1 calls)

     Called by init_run:
     wfcinit      :      0.00s CPU      0.00s WALL (       1 calls)
     potinit      :      0.39s CPU      0.46s WALL (       1 calls)
     hinit0       :      0.50s CPU      0.52s WALL (       1 calls)

     Called by electrons:
     c_bands      :   6680.32s CPU   6907.28s WALL (       1 calls)
     v_of_rho     :      0.29s CPU      0.32s WALL (       1 calls)

     Called by c_bands:
     init_us_2    :      2.69s CPU      2.81s WALL (      21 calls)
     cegterg      :   6498.36s CPU   6715.87s WALL (     112 calls)

     Called by *egterg:
     cdiaghg      :     54.32s CPU     54.37s WALL (    2096 calls)
     h_psi        :   5265.62s CPU   5469.70s WALL (    2208 calls)
     g_psi        :     22.36s CPU     22.39s WALL (    2075 calls)

     Called by h_psi:
     h_psi:calbec :    513.45s CPU    516.42s WALL (    2208 calls)
     vloc_psi     :   4302.73s CPU   4491.54s WALL (    2208 calls)
     add_vuspsi   :    419.34s CPU    419.65s WALL (    2208 calls)

     General routines
     calbec       :    513.44s CPU    516.41s WALL (    2208 calls)
     fft          :      0.57s CPU      0.59s WALL (      14 calls)
     fftw         :   3035.68s CPU   3221.73s WALL (  492904 calls)
     davcio       :      0.05s CPU      5.40s WALL (      42 calls)

     Parallel routines

     PWSCF        :      1h51m CPU      1h55m WALL


   This run was terminated on:  20:25:58  11Jul2025            

=------------------------------------------------------------------------------=
   JOB DONE.
=------------------------------------------------------------------------------=
